Material,Substitutions,Composition,Tc (K),Pressure (GPa),Shape,Substrate,DOI
Mg B 2,{},"{'Mg': 1, 'B': 2}",40.0,0.0,,,10.1155/2010/958618
Bi 2 Sr 2 Ca 2 Cu 3 O 10,{},"{'Bi': 2, 'Sr': 2, 'Ca': 2, 'Cu': 3, 'O': 10}",111.0,0.0,,,10.1155/2010/958618
Bi 2 Sr 2 Ca Cu 2 O 8,{},"{'Bi': 2, 'Sr': 2, 'Ca': 1, 'Cu': 2, 'O': 8}",91.0,0.0,,,10.1155/2010/958618
Hg Ba 2 Cu O 6,{},"{'Hg': 1, 'Ba': 2, 'Cu': 1, 'O': 6}",97.0,0.0,,,10.1103/physrevx.3.021019
Hg Ba 2 Cu O 6,{},"{'Hg': 1, 'Ba': 2, 'Cu': 1, 'O': 6}",65.0,0.0,,,10.1103/physrevx.3.021019
La 1.6-x Nd 0.4 Sr x Cu O 4,{'x': []},,40.0,0.0,,,10.1103/physrevx.3.021019
Hg Ba 2 Cu O 6,{},"{'Hg': 1, 'Ba': 2, 'Cu': 1, 'O': 6}",100.0,0.0,,,10.1103/physrevx.3.021019
La Fe As O,{},"{'La': 1, 'Fe': 1, 'As': 1, 'O': 1}",56.0,0.0,,,10.1103/physrevb.78.100504
La 2-x,{'x': []},,40.0,0.0,,,10.1103/physrevb.85.064501
Hg Ba 2 Cu O 4+δ,{'δ': []},,90.0,0.0,,,10.1103/physrevb.85.064501
Ce Co In 5,{},"{'Ce': 1, 'Co': 1, 'In': 5}",2.3,0.0,,,10.1103/physrevlett.89.106402
Fe Se,{},"{'Fe': 1, 'Se': 1}",36.0,38.0,,,10.1103/physrevb.84.214526
K 0.8 Fe 2 Se 2,{},"{'K': 0.8, 'Fe': 2, 'Se': 2}",30.0,0.0,,,10.1103/physrevb.84.214526
Fe Se 0.35 Te 0.65,{},"{'Fe': 1, 'Se': 0.35, 'Te': 0.65}",11.5,0.0,,,10.1103/physrevb.84.214526
Ce Ru 2,{},"{'Ce': 1, 'Ru': 2}",8.0,0.0,,,10.1103/physrevb.84.214526
Fe Se 0.5 Te 0.5,{},"{'Fe': 1, 'Se': 0.5, 'Te': 0.5}",14.3,0.0,single crystal,,10.1103/physrevb.84.214526
Fe Se 0.5 Te 0.5,{},"{'Fe': 1, 'Se': 0.5, 'Te': 0.5}",14.3,0.0,,,10.1103/physrevb.84.214526
Fe Se,{},"{'Fe': 1, 'Se': 1}",8.0,0.0,,,10.1088/0953-2048/25/6/065019
Fe Se,{},"{'Fe': 1, 'Se': 1}",30.0,0.0,,,10.1088/0953-2048/25/6/065019
Fe Te 0.65 Se 0.35,{},"{'Fe': 1, 'Te': 0.65, 'Se': 0.35}",12.9,0.0,single crystals,,10.1088/0953-2048/25/6/065019
I B S s,{'s': []},,38.0,0.0,,,10.1088/1361-6668/ab804c
Nb N,{},"{'Nb': 1, 'N': 1}",1.0,0.0,film,,10.3390/condmat2020014
Bi 2 Se 3,{},"{'Bi': 2, 'Se': 3}",2.7,0.0,,,10.3390/condmat2020014
Cu 0.2 Bi 2 Se 3,{},"{'Cu': 0.2, 'Bi': 2, 'Se': 3}",3.0,0.0,single crystals,,10.3390/condmat2020014
Pd Bi,{},"{'Pd': 1, 'Bi': 1}",3.8,0.0,,,10.1103/physrevb.93.220504
Nb Se 2,{},"{'Nb': 1, 'Se': 2}",5.8,0.0,,,10.1103/physrevlett.81.2352
Nb 1-x Ge x,{'x': [0.3]},"{'Nb': 0.7, 'Ge': 0.3}",2.68,0.0,,,10.1103/physrevlett.91.177002
Nd 1.2 Ba 1.8 Cu 3 O 7,{},"{'Nd': 1.2, 'Ba': 1.8, 'Cu': 3, 'O': 7}",65.0,0.0,,,10.1126/science.1223532
Y Ba 2 Cu O 6.6,{},"{'Y': 1, 'Ba': 2, 'Cu': 1, 'O': 6.6}",61.0,0.0,,,10.1126/science.1223532
Hg Ba 2 Ca Cu 2 O 8,{},"{'Hg': 1, 'Ba': 2, 'Ca': 1, 'Cu': 2, 'O': 8}",127.0,0.0,,,
Hg Ba 2 Cu O 6,{},"{'Hg': 1, 'Ba': 2, 'Cu': 1, 'O': 6}",127.0,0.0,,,
Ba (Fe 1.62 Ru 0.35) 2 As 2,{},"{'Ba': 1, 'Fe': 3.24, 'Ru': 0.7, 'As': 2}",20.0,0.0,,,10.1103/physrevb.81.224503
Nb,{},{'Nb': 1},9.24,0.0,thin films,,10.1063/1.3456524
K x Fe 2-y Se 2,"{'x': [], 'y': []}",,30.0,0.0,,,10.1103/physrevb.84.224520
Ca 12,{},{'Ca': 12},6.7,36.0,,,10.1007/s10051-001-8697-y
La 2-x Ce x Cu O 4,{'x': []},,25.0,0.0,,,10.1103/physrevb.68.054511
La 2-x Ce x Cu O 4,{'x': []},,25.0,0.0,films,SrLaAlO4,10.1103/physrevb.68.054511
Fe Te 0.55 Se 0.45,{},"{'Fe': 1, 'Te': 0.55, 'Se': 0.45}",14.5,0.0,,,10.1103/physrevb.98.165144
Nb,{},{'Nb': 1},5.9,0.0,film,,10.1088/1367-2630/ab5994
Fe Se,{},"{'Fe': 1, 'Se': 1}",7.5,0.0,powder,,10.1063/1.3093838
Fe Se,{},"{'Fe': 1, 'Se': 1}",14.0,1.48,,,10.1063/1.3093838
Fe Se 0.82,{},"{'Fe': 1, 'Se': 0.82}",12.0,0.0,,,10.1063/1.3093838
Th Fe As N,{},"{'Th': 1, 'Fe': 1, 'As': 1, 'N': 1}",30.0,0.0,,,10.1088/0256-307x/36/10/107403
Ba Fe 2 As 2,{},"{'Ba': 1, 'Fe': 2, 'As': 2}",38.0,0.0,,,10.1007/s10948-016-3816-4
Ba Fe 2-x Ni x As 2,{'x': [0.1]},"{'Ba': 1, 'Fe': 1.9, 'Ni': 0.1, 'As': 2}",18.5,0.0,single crystals,,10.1007/s10948-016-3816-4
Fe 1+δ Te,{'δ': []},,9.0,0.0,,,
La 2-x Sr x Cu O 4,{'x': []},,32.0,0.0,,,
La 1.86 Sr 0.14 Cu O 4,{},"{'La': 1.86, 'Sr': 0.14, 'Cu': 1, 'O': 4}",36.0,0.0,,,
Al 0.98 Mn 0.02,{},"{'Al': 0.98, 'Mn': 0.02}",1.4,0.0,,,10.1038/nnano.2015.281
Tl 2 Ba 2 Cu O 6,{},"{'Tl': 2, 'Ba': 2, 'Cu': 1, 'O': 6}",20.0,0.0,,,10.1016/s0038-1098(01)00410-0
Eu (Fe 1-x Ir x) 2 As 2,{'x': [0.12]},"{'Eu': 1, 'Fe': 1.76, 'Ir': 0.24, 'As': 2}",22.0,0.0,single crystal,,10.1103/physrevb.91.064506
Eu Fe 2 (As 1-x P x) 2,{'x': [0.15]},"{'Eu': 1, 'Fe': 2, 'As': 1.7, 'P': 0.3}",25.0,0.0,,,10.1103/physrevb.91.064506
Eu (Fe 1-x Co x) 2 As 2,{'x': [0.18]},"{'Eu': 1, 'Fe': 1.6400000000000001, 'Co': 0.36, 'As': 2}",8.0,0.0,,,10.1103/physrevb.91.064506
Eu (Fe 0.86 Ir 0.14) 2 As 2,{},"{'Eu': 1, 'Fe': 1.72, 'Ir': 0.28, 'As': 2}",22.5,0.0,,,10.1103/physrevb.91.064506
Eu (Fe 1-x Ir x) 2 As 2,{'x': [0.12]},"{'Eu': 1, 'Fe': 1.76, 'Ir': 0.24, 'As': 2}",22.0,0.0,polycrystalline,,10.1103/physrevb.91.064506
Eu (Fe 1-x Ir x) 2 As 2,{'x': [0.12]},"{'Eu': 1, 'Fe': 1.76, 'Ir': 0.24, 'As': 2}",22.0,0.0,,,10.1103/physrevb.91.064506
Eu Fe 2 As 2,{},"{'Eu': 1, 'Fe': 2, 'As': 2}",19.0,0.0,,,10.1103/physrevb.91.064506
B,{},{'B': 1},10.5,1.7,film,,
Fe Se 0.5 Te 0.5,{},"{'Fe': 1, 'Se': 0.5, 'Te': 0.5}",14.0,0.0,,,
Fe Se 0.5 Te 0.5,{},"{'Fe': 1, 'Se': 0.5, 'Te': 0.5}",13.0,0.0,,,
Bi 2 Sr 2 Ca Cu 2 O 8,{},"{'Bi': 2, 'Sr': 2, 'Ca': 1, 'Cu': 2, 'O': 8}",25.0,0.0,,,10.1038/nphys334
Bi 2 Sr 2 Ca Cu 2 O 8+δ,{'δ': []},,90.0,0.0,,,10.1038/nphys334
Bi 2.1 Sr 1.4 Ca 1.5 Cu 2 O 8+δ,{'δ': []},,25.0,0.0,single crystal,,10.1038/nphys334
Ca 3 Cu 4 O 10+x,{'x': []},,123.0,0.0,,,10.1063/1.59646
Sr 1-x Na x Fe 2 As 2,{'x': []},,35.0,0.0,,,10.1103/physrevb.89.014510
Mg B 2,{},"{'Mg': 1, 'B': 2}",40.0,0.0,polycrystalline,,10.1016/s0038-1098(02)00877-3
Sr Pt As,{},"{'Sr': 1, 'Pt': 1, 'As': 1}",2.4,0.0,,,10.1103/physrevb.99.144510
La 1-x Sm x O 0.5 F 0.5 Bi S 2,{'x': [0.2]},"{'La': 0.8, 'Sm': 0.2, 'O': 0.5, 'F': 0.5, 'Bi': 1, 'S': 2}",3.2,0.0,,,10.7566/jpsj.84.124701
Bi 4 O 4 S 3,{},"{'Bi': 4, 'O': 4, 'S': 3}",4.5,0.0,,,10.7566/jpsj.84.124701
La O 0.5 F 0.5 Bi S 2,{},"{'La': 1, 'O': 0.5, 'F': 0.5, 'Bi': 1, 'S': 2}",10.6,0.0,,,10.7566/jpsj.84.124701
U Ge 2,{},"{'U': 1, 'Ge': 2}",4.2,0.0,,,10.1103/physrevlett.90.167005
Sn 0.988-x In x Te,{'x': []},,2.0,0.0,,,10.1103/physrevb.87.140507
Sn Te,{},"{'Sn': 1, 'Te': 1}",4.5,0.0,,,10.1103/physrevb.87.140507
Sn Te,{},"{'Sn': 1, 'Te': 1}",0.3,0.0,,,10.1103/physrevb.87.140507
Mg B 2,{},"{'Mg': 1, 'B': 2}",40.0,0.0,,,10.1140/epjb/e2006-00269-7
Mg B 2,{},"{'Mg': 1, 'B': 2}",39.0,0.0,,,10.1140/epjb/e2006-00269-7
Mg 1-x B 2,{'x': []},,36.6,0.0,,,
Ta B 2,{},"{'Ta': 1, 'B': 2}",77.0,0.0,,,
Mg 1-x B 2,{'x': []},,39.0,0.0,,,
Bi 2 Sr 2 Ca Cu 2 O 8,{},"{'Bi': 2, 'Sr': 2, 'Ca': 1, 'Cu': 2, 'O': 8}",85.0,0.0,single crystals,,10.1016/s0921-4534(99)00448-7
Ba Fe 1.8 Co 0.2 As 2,{},"{'Ba': 1, 'Fe': 1.8, 'Co': 0.2, 'As': 2}",22.0,0.0,,,
Ba 1-x K x Fe 2 As 2,{'x': [0.45]},"{'Ba': 0.55, 'K': 0.45, 'Fe': 2, 'As': 2}",38.0,0.0,,,
Ba Fe 1.8 Co 0.2 As 2,{},"{'Ba': 1, 'Fe': 1.8, 'Co': 0.2, 'As': 2}",29.0,0.0,,,
Ba Fe 1.92 Co 0.08 As 2,{},"{'Ba': 1, 'Fe': 1.92, 'Co': 0.08, 'As': 2}",11.0,0.0,,,
Ba Fe 2 As 2,{},"{'Ba': 1, 'Fe': 2, 'As': 2}",20.0,2.5,,,
Y Ba 2 Cu 3 O 6.5,{},"{'Y': 1, 'Ba': 2, 'Cu': 3, 'O': 6.5}",45.0,0.0,single crystal,,10.1103/physrevb.70.014504
La O 1-x F x F e As,"{'x': [], 'e': []}",,26.0,0.0,,,
Sm F e As O 1-x F x,"{'x': [], 'e': []}",,40.0,0.0,,,
Sm F e As O 1-x F x,"{'x': [], 'e': []}",,43.0,0.0,,,
Mg B 2,{},"{'Mg': 1, 'B': 2}",15.0,0.0,single crystal,,10.1103/physrevb.65.140501
U Te 2,{},"{'U': 1, 'Te': 2}",1.6,0.0,single crystal,,
Ba 1-x K x Fe 2 As 2,{'x': []},,32.0,0.0,,,10.1016/j.physc.2009.03.043
Ta 2 Pd x S 5,{'x': [1.0]},"{'Ta': 2, 'Pd': 1.0, 'S': 5}",6.0,0.0,,,10.7566/jpsj.83.023702
Ta 2 Pd 0.92 S 5,{},"{'Ta': 2, 'Pd': 0.92, 'S': 5}",5.4,0.0,single crystal,,10.7566/jpsj.83.023702
Ta 2 Pd 0.92 S 5,{},"{'Ta': 2, 'Pd': 0.92, 'S': 5}",5.4,0.0,single crystals,,10.7566/jpsj.83.023702
Mg B 2,{},"{'Mg': 1, 'B': 2}",55.0,0.0,,,10.1103/physrevb.87.024505
Pb,{},{'Pb': 1},7.2,0.0,,,10.1103/physrevb.87.024505
Mg B 2,{},"{'Mg': 1, 'B': 2}",39.0,0.0,,,10.1103/physrevb.87.024505
Y Ba Cu O,{},"{'Y': 1, 'Ba': 1, 'Cu': 1, 'O': 1}",92.0,0.0,,,
Na 0.05 W O 3,{},"{'Na': 0.05, 'W': 1, 'O': 3}",91.0,0.0,,,
Nb,{},{'Nb': 1},7.9,0.0,,,10.1021/acs.nanolett.5b04444
Nb N,{},"{'Nb': 1, 'N': 1}",8.2,0.0,,,10.1021/acs.nanolett.5b04444
Lu B 12,{},"{'Lu': 1, 'B': 12}",0.4,0.0,,,
Lu 1-x Zr x B 12,{'x': [0.45]},"{'Lu': 0.55, 'Zr': 0.45, 'B': 12}",1.0,0.0,,,
Nb 3 Ge,{},"{'Nb': 3, 'Ge': 1}",23.0,0.0,,,
Eu Fe 2 P 2,{},"{'Eu': 1, 'Fe': 2, 'P': 2}",30.0,0.0,,,10.1103/physrevb.89.144423
Mg (B 1-x C x) 2,{'x': []},,22.0,0.0,,,10.1103/physrevb.71.024533
Mg (B 0.9 C 0.1) 2,{},"{'Mg': 1, 'B': 1.8, 'C': 0.2}",7.0,0.0,,,10.1103/physrevb.71.024533
Mg C Ni 3,{},"{'Mg': 1, 'C': 1, 'Ni': 3}",7.8,0.0,,,10.1103/physrevb.74.134505
Mg C Ni 3,{},"{'Mg': 1, 'C': 1, 'Ni': 3}",8.0,0.0,,,10.1103/physrevb.74.134505
Bi 2 Sr 2 Ca (Cu 1-x Zn x) 2 O 8+δ,"{'δ': [], 'x': []}",,83.0,0.0,,,
Bi 2 Sr 2 Ca Cu 2 O 8,{},"{'Bi': 2, 'Sr': 2, 'Ca': 1, 'Cu': 2, 'O': 8}",88.0,0.0,,,
Bi 2 Sr 2 Ca Cu 2 O 8+δ,{'δ': []},,89.0,0.0,,,
La 1.93 Sr 0.07 Cu O 4,{},"{'La': 1.93, 'Sr': 0.07, 'Cu': 1, 'O': 4}",14.0,0.0,,,10.1103/physrevb.85.184508
Y Ba 2 Cu 3 O 6.95,{},"{'Y': 1, 'Ba': 2, 'Cu': 3, 'O': 6.95}",61.4,0.0,,,
Y Ba 2 Cu 3 O 6.7,{},"{'Y': 1, 'Ba': 2, 'Cu': 3, 'O': 6.7}",59.7,0.0,,,
Y Ba 2 Cu 3 O 7-δ,{'δ': []},,41.5,0.0,single crystals,,
Y Ba 2 Cu 3 O 7-δ,{'δ': []},,61.4,0.0,,,
Y Ba 2 Cu 3 O 7-δ,{'δ': []},,93.5,0.0,single crystal,,
La Fe As O 0.9 F 0.1,{},"{'La': 1, 'Fe': 1, 'As': 1, 'O': 0.9, 'F': 0.1}",28.0,0.0,,,10.1088/1367-2630/11/3/035005
Ca C 6,{},"{'Ca': 1, 'C': 6}",11.5,0.0,,,10.1002/3527600434.eap790
C 60,{},{'C': 60},33.0,0.0,,,10.1002/3527600434.eap790
Nb Ti,{},"{'Nb': 1, 'Ti': 1}",9.2,0.0,,,10.1002/3527600434.eap790
Rb 3 C 60,{},"{'Rb': 3, 'C': 60}",29.5,0.0,,,10.1002/3527600434.eap790
K Hg C 8,{},"{'K': 1, 'Hg': 1, 'C': 8}",1.4,0.0,,,10.1002/3527600434.eap790
Ce Cu 2 Si 2,{},"{'Ce': 1, 'Cu': 2, 'Si': 2}",1.5,0.0,,,10.1002/3527600434.eap790
Ce Co In 5,{},"{'Ce': 1, 'Co': 1, 'In': 5}",2.3,0.0,,,10.1002/3527600434.eap790
La Fe As O,{},"{'La': 1, 'Fe': 1, 'As': 1, 'O': 1}",55.0,0.0,,,10.1002/3527600434.eap790
Ba 1-x K x Bi O 3,{'x': [0.35]},"{'Ba': 0.65, 'K': 0.35, 'Bi': 1, 'O': 3}",30.0,0.0,,,10.1002/3527600434.eap790
Pu Co Ga 5,{},"{'Pu': 1, 'Co': 1, 'Ga': 5}",2.0,0.0,,,10.1002/3527600434.eap790
Mg B 2,{},"{'Mg': 1, 'B': 2}",40.0,0.0,,,10.1002/3527600434.eap790
Pb Mo 6 S 8,{},"{'Pb': 1, 'Mo': 6, 'S': 8}",12.6,0.0,,,10.1002/3527600434.eap790
Bi 4 O 4 S 3,{},"{'Bi': 4, 'O': 4, 'S': 3}",4.5,0.0,,,10.1002/3527600434.eap790
K Os 2 O 6,{},"{'K': 1, 'Os': 2, 'O': 6}",9.6,0.0,,,10.1002/3527600434.eap790
Rb Os 2 O 6,{},"{'Rb': 1, 'Os': 2, 'O': 6}",9.6,0.0,,,10.1002/3527600434.eap790
Cs Os 2 O 6,{},"{'Cs': 1, 'Os': 2, 'O': 6}",9.6,0.0,,,10.1002/3527600434.eap790
Np Pd 5 Al 2,{},"{'Np': 1, 'Pd': 5, 'Al': 2}",4.9,0.0,,,10.1002/3527600434.eap790
Pr Ru 4 Os 12,{},"{'Pr': 1, 'Ru': 4, 'Os': 12}",1.0,0.0,,,10.1002/3527600434.eap790
La Fe P O,{},"{'La': 1, 'Fe': 1, 'P': 1, 'O': 1}",5.0,0.0,,,10.1002/3527600434.eap790
Lu Ni 2 B 2 C,{},"{'Lu': 1, 'Ni': 2, 'B': 2, 'C': 1}",16.5,0.0,,,10.1002/3527600434.eap790
Gd 0.8 Th 0.2 Fe As O,{},"{'Gd': 0.8, 'Th': 0.2, 'Fe': 1, 'As': 1, 'O': 1}",56.0,0.0,,,10.1002/3527600434.eap790
Ba Ti 2 Sb 2 O,{},"{'Ba': 1, 'Ti': 2, 'Sb': 2, 'O': 1}",1.0,0.0,,,10.1002/3527600434.eap790
Ba 1-x Na x Ti 2 Sb 2 O,{'x': []},,5.5,0.0,,,10.1002/3527600434.eap790
Cs 3 C 60,{},"{'Cs': 3, 'C': 60}",38.0,0.0,,,10.1002/3527600434.eap790
Fe Se,{},"{'Fe': 1, 'Se': 1}",109.0,0.0,monolayer,SrTiO 3,10.1002/3527600434.eap790
Nb C,{},"{'Nb': 1, 'C': 1}",12.0,0.0,,,10.1002/3527600434.eap790
Nb N,{},"{'Nb': 1, 'N': 1}",16.0,0.0,,,10.1002/3527600434.eap790
Nb,{},{'Nb': 1},9.2,0.0,,,10.1002/3527600434.eap790
Ce Pt 3 Si,{},"{'Ce': 1, 'Pt': 3, 'Si': 1}",0.75,0.0,,,10.1002/3527600434.eap790
C 60,{},{'C': 60},30.0,0.0,,,10.1002/3527600434.eap790
K C 8,{},"{'K': 1, 'C': 8}",0.14,0.0,,,10.1002/3527600434.eap790
Pu Rh Ga 5,{},"{'Pu': 1, 'Rh': 1, 'Ga': 5}",8.7,0.0,,,10.1002/3527600434.eap790
Gd 0.2 Pb Mo 6 S 8,{},"{'Gd': 0.2, 'Pb': 1, 'Mo': 6, 'S': 8}",14.3,0.0,,,10.1002/3527600434.eap790
Cs 3 C 60,{},"{'Cs': 3, 'C': 60}",40.0,0.0,,,10.1002/3527600434.eap790
Pu Co Ga 5,{},"{'Pu': 1, 'Co': 1, 'Ga': 5}",18.5,0.0,,,10.1002/3527600434.eap790
Si C,{},"{'Si': 1, 'C': 1}",1.4,0.0,,,10.1002/3527600434.eap790
La Fe As O,{},"{'La': 1, 'Fe': 1, 'As': 1, 'O': 1}",26.0,0.0,,,10.1002/3527600434.eap790
Fe Se,{},"{'Fe': 1, 'Se': 1}",8.0,0.0,,,10.1002/3527600434.eap790
U Pt 3,{},"{'U': 1, 'Pt': 3}",1.85,0.0,,,10.1002/3527600434.eap790
La 2-x Sr x Cu O 4,{'x': []},,1.5,0.0,,,10.1002/3527600434.eap790
Mo C,{},"{'Mo': 1, 'C': 1}",14.3,0.0,,,10.1002/3527600434.eap790
U Pt 3,{},"{'U': 1, 'Pt': 3}",1.0,0.0,,,10.1002/3527600434.eap790
Yb C 6,{},"{'Yb': 1, 'C': 6}",6.5,0.0,,,10.1002/3527600434.eap790
Ce Co In 5,{},"{'Ce': 1, 'Co': 1, 'In': 5}",2.3,0.0,,,10.1103/physrevb.76.132507
Ce Ir In 5,{},"{'Ce': 1, 'Ir': 1, 'In': 5}",0.4,0.0,,,10.1103/physrevb.76.132507
Ce Rh In 5,{},"{'Ce': 1, 'Rh': 1, 'In': 5}",3.8,0.0,,,10.1103/physrevb.76.132507
Y Ba 2 Cu 3 O 7,{},"{'Y': 1, 'Ba': 2, 'Cu': 3, 'O': 7}",90.0,0.0,,,10.1103/revmodphys.79.175
La 2-x Ce x Cu O 4,{'x': []},,30.0,0.0,thin films,,10.1103/revmodphys.79.175
Li Fe As,{},"{'Li': 1, 'Fe': 1, 'As': 1}",18.0,0.0,,,10.1016/j.physc.2009.03.038
Na Fe As,{},"{'Na': 1, 'Fe': 1, 'As': 1}",18.0,0.0,,,10.1016/j.physc.2009.03.038
Ba Fe 1.8 Co 0.2 As 2,{},"{'Ba': 1, 'Fe': 1.8, 'Co': 0.2, 'As': 2}",25.0,0.0,,,10.1038/srep12421
Bi 2 Rh 3 Se 2,{},"{'Bi': 2, 'Rh': 3, 'Se': 2}",0.7,0.0,,,
Bi 2 Rh 3 S 2,{},"{'Bi': 2, 'Rh': 3, 'S': 2}",1.7,0.0,,,
Ce Cu 2 Si 2,{},"{'Ce': 1, 'Cu': 2, 'Si': 2}",0.46,0.0,,,10.1103/physrevlett.107.057001
Bi 2 Sr 2 Ca Cu 2 O 8,{},"{'Bi': 2, 'Sr': 2, 'Ca': 1, 'Cu': 2, 'O': 8}",90.0,0.0,single crystal,,
Ce Ir In 5,{},"{'Ce': 1, 'Ir': 1, 'In': 5}",0.4,0.0,,,10.1103/physrevlett.97.056404
Ce Co In 5,{},"{'Ce': 1, 'Co': 1, 'In': 5}",2.3,0.0,,,10.1103/physrevlett.97.056404
Ba Ti O 3,{},"{'Ba': 1, 'Ti': 1, 'O': 3}",93.0,0.0,,,10.1088/1361-6528/ab59f7
Sr Fe 2 As 2,{},"{'Sr': 1, 'Fe': 2, 'As': 2}",34.1,0.0,,,10.1143/jpsj.78.013709
Sr Fe 2 As 2,{},"{'Sr': 1, 'Fe': 2, 'As': 2}",10.0,8.0,,,10.1143/jpsj.78.013709
Cs Ca 2 Fe 4 As 4 F 2,{},"{'Cs': 1, 'Ca': 2, 'Fe': 4, 'As': 4, 'F': 2}",29.3,0.0,polycrystalline,,10.1103/physrevb.99.020502
Tl 0.63 K 0.37 Fe 1.78 Se 2,{},"{'Tl': 0.63, 'K': 0.37, 'Fe': 1.78, 'Se': 2}",29.1,0.0,Single crystals,,10.1209/0295-5075/93/57001
Tl 0.63 K 0.37 Fe 1.78 Se 2,{},"{'Tl': 0.63, 'K': 0.37, 'Fe': 1.78, 'Se': 2}",29.0,0.0,,,10.1209/0295-5075/93/57001
K 0.8 Fe 2-x Se 2,{'x': []},,30.0,0.0,,,10.1209/0295-5075/93/57001
Sm Fe 0.825 Ir 0.175 As O,{},"{'Sm': 1, 'Fe': 0.825, 'Ir': 0.175, 'As': 1, 'O': 1}",10.5,0.0,,,10.1209/0295-5075/89/67007
Sm Fe As O,{},"{'Sm': 1, 'Fe': 1, 'As': 1, 'O': 1}",10.0,0.0,,,10.1209/0295-5075/89/67007
Sm Fe 0.9 Rh 0.1 As O,{},"{'Sm': 1, 'Fe': 0.9, 'Rh': 0.1, 'As': 1, 'O': 1}",6.8,0.0,,,10.1209/0295-5075/89/67007
Sm Fe 0.9 Co 0.1 As O,{},"{'Sm': 1, 'Fe': 0.9, 'Co': 0.1, 'As': 1, 'O': 1}",13.6,0.0,,,10.1209/0295-5075/89/67007
La 1.86 Sr 0.14 Cu 0.988 Zn 0.012 O 4-δ,{'δ': []},,33.0,0.0,,,
Sr 2 Ru O 4,{},"{'Sr': 2, 'Ru': 1, 'O': 4}",1.5,0.0,single crystals,,10.1038/srep41291
Sr 2 Ru O 4,{},"{'Sr': 2, 'Ru': 1, 'O': 4}",3.0,0.0,,,10.1038/srep41291
Sr 2 Ru O 4,{},"{'Sr': 2, 'Ru': 1, 'O': 4}",1.5,0.0,,,10.1038/srep41291
Fe Se,{},"{'Fe': 1, 'Se': 1}",109.0,0.0,Monolayer,,10.1103/physrevlett.121.157003
C 8 K,{},"{'C': 8, 'K': 1}",1.0,0.0,,,10.1103/physrevb.75.134512
C 8 Rb,{},"{'C': 8, 'Rb': 1}",1.0,0.0,,,10.1103/physrevb.75.134512
C 8 Cs,{},"{'C': 8, 'Cs': 1}",1.0,0.0,,,10.1103/physrevb.75.134512
Na,{},{'Na': 1},5.0,0.0,,,10.1103/physrevb.75.134512
C 6 Yb,{},"{'C': 6, 'Yb': 1}",6.5,0.0,,,10.1103/physrevb.75.134512
Ce O 0.5 F 0.5 Bi S 2,{},"{'Ce': 1, 'O': 0.5, 'F': 0.5, 'Bi': 1, 'S': 2}",2.5,0.0,,,10.1063/1.4791433
Ce O Bi S 2,{},"{'Ce': 1, 'O': 1, 'Bi': 1, 'S': 2}",2.5,0.0,,,10.1063/1.4791433
Nb N,{},"{'Nb': 1, 'N': 1}",13.0,0.0,,,10.1088/0953-2048/26/11/114001
Mg B 2,{},"{'Mg': 1, 'B': 2}",39.0,196.0,,,10.1103/physrevb.64.012509
K Ta O 3,{},"{'K': 1, 'Ta': 1, 'O': 3}",50.0,0.0,,,
Ce Pt 3 Si,{},"{'Ce': 1, 'Pt': 3, 'Si': 1}",0.75,0.0,,,10.1103/physrevb.76.094516
Pr 0.88 La Ce 0.12 Cu O 4,{},"{'Pr': 0.88, 'La': 1, 'Ce': 0.12, 'Cu': 1, 'O': 4}",24.0,0.0,,,10.1038/nature06430
Co Si 2,{},"{'Co': 1, 'Si': 2}",1.5,0.0,,,
Cs 3 C 60,{},"{'Cs': 3, 'C': 60}",38.0,0.0,,,10.1103/physrevlett.109.166404
Sm Fe 0.92 Co 0.08 As O,{},"{'Sm': 1, 'Fe': 0.92, 'Co': 0.08, 'As': 1, 'O': 1}",18.0,0.0,,,10.1103/physrevb.100.144504
Nd Fe As O 0.6 F 0.4,{},"{'Nd': 1, 'Fe': 1, 'As': 1, 'O': 0.6, 'F': 0.4}",38.0,0.0,,,10.1103/physrevb.100.144504
Ce Co In 5,{},"{'Ce': 1, 'Co': 1, 'In': 5}",2.3,0.0,,,10.1088/1742-6596/273/1/012073
Mg B 2,{},"{'Mg': 1, 'B': 2}",40.0,0.0,,,10.1142/s0217979203018351
Bi 2 Sr 2 Ca 1-x Y x Cu 2 O 8+δ,"{'δ': [], 'x': []}",,96.0,0.0,,,10.1103/physrevb.79.214510
Si,{},{'Si': 1},6.0,0.0,,,10.1063/1.5027104
Mo,{},{'Mo': 1},13.0,0.0,,,10.1063/1.5027104
Mg B 2,{},"{'Mg': 1, 'B': 2}",40.0,0.0,,,10.1103/physrevb.65.184516
Ca K Fe 4 As 4,{},"{'Ca': 1, 'K': 1, 'Fe': 4, 'As': 4}",35.0,0.0,,,10.7566/jpsj.86.093703
Ba (Fe 1-x Co x) 2 As 2,{'x': [0.05]},"{'Ba': 1, 'Fe': 1.9, 'Co': 0.1, 'As': 2}",9.0,0.0,,,10.1088/0034-4885/79/9/094502
Ba (Fe 1-x Co x) 2 As 2,{'x': [0.125]},"{'Ba': 1, 'Fe': 1.75, 'Co': 0.25, 'As': 2}",11.0,0.0,,,10.1088/0034-4885/79/9/094502
Sr 0.85 K 0.15 Fe 2 As 2,{},"{'Sr': 0.85, 'K': 0.15, 'Fe': 2, 'As': 2}",25.0,0.0,single crystal,,10.1007/s10948-010-1123-z
Ba 0.68 K 0.32 Fe 2 As 2,{},"{'Ba': 0.68, 'K': 0.32, 'Fe': 2, 'As': 2}",38.5,0.0,crystal,,10.1007/s10948-010-1123-z
Sr 0.85 K 0.15 Fe 2 As 2,{},"{'Sr': 0.85, 'K': 0.15, 'Fe': 2, 'As': 2}",32.0,0.0,single crystal,,10.1007/s10948-010-1123-z
Ba 0.68 K 0.32 Fe 2 As 2,{},"{'Ba': 0.68, 'K': 0.32, 'Fe': 2, 'As': 2}",38.5,0.0,single crystals,,10.1007/s10948-010-1123-z
Ba 0.68 K 0.32 Fe 2 As 2,{},"{'Ba': 0.68, 'K': 0.32, 'Fe': 2, 'As': 2}",38.5,0.0,,,10.1007/s10948-010-1123-z
Sm Fe As O,{},"{'Sm': 1, 'Fe': 1, 'As': 1, 'O': 1}",55.0,0.0,,,10.1007/s10948-010-1123-z
Sr Fe 2 As 2,{},"{'Sr': 1, 'Fe': 2, 'As': 2}",32.0,0.0,,,10.1007/s10948-010-1123-z
La Fe As O 1-x F x,{'x': []},,26.0,0.0,,,10.1007/s10948-010-1123-z
Ba 0.68 K 0.32 Fe 2 As 2,{},"{'Ba': 0.68, 'K': 0.32, 'Fe': 2, 'As': 2}",38.5,0.0,single crystal,,10.1007/s10948-010-1123-z
H 2 S,{},"{'H': 2, 'S': 1}",203.0,150.0,,,10.1063/1.4959154
Ce Ir In 5,{},"{'Ce': 1, 'Ir': 1, 'In': 5}",0.4,0.0,,,10.1088/0953-8984/18/44/r01
Y Ni 2 B 2 C,{},"{'Y': 1, 'Ni': 2, 'B': 2, 'C': 1}",15.5,0.0,,,10.1088/0953-8984/18/44/r01
U Pd 2 Al 3,{},"{'U': 1, 'Pd': 2, 'Al': 3}",2.0,0.0,single crystals,,10.1088/0953-8984/18/44/r01
Sr 2 Ru O 4,{},"{'Sr': 2, 'Ru': 1, 'O': 4}",1.45,0.0,,,10.1088/0953-8984/18/44/r01
Ce Co In 5,{},"{'Ce': 1, 'Co': 1, 'In': 5}",2.3,0.0,,,10.1088/0953-8984/18/44/r01
Pr Os 4 Sb 12,{},"{'Pr': 1, 'Os': 4, 'Sb': 12}",1.82,0.0,,,10.1088/0953-8984/18/44/r01
U Pd 2 Al 3,{},"{'U': 1, 'Pd': 2, 'Al': 3}",2.0,0.0,,,10.1088/0953-8984/18/44/r01
Y Ba 2 Cu 3 O 7-y,{'y': []},,90.0,0.0,,,10.1088/0953-8984/13/29/202
Al,{},{'Al': 1},1.2,0.0,,,10.1016/s0921-4534(00)01675-0
U Pd 2 Al 3,{},"{'U': 1, 'Pd': 2, 'Al': 3}",2.0,0.0,,,10.1103/physrevb.75.184502
Bi 2 Se 3,{},"{'Bi': 2, 'Se': 3}",3.0,0.0,,,10.1103/physrevb.94.134516
Nb Se 2,{},"{'Nb': 1, 'Se': 2}",7.2,0.0,,,10.1038/s41467-018-03000-w
Cl O 4,{},"{'Cl': 1, 'O': 4}",24.0,0.0,,,10.1016/s0921-4534(03)01323-6
La Fe As O 1-x F x,{'x': []},,26.0,0.0,,,10.1209/0295-5075/104/37007
Ba 0.6 K 0.4 Fe 2 As 2,{},"{'Ba': 0.6, 'K': 0.4, 'Fe': 2, 'As': 2}",38.0,0.0,,,10.1209/0295-5075/104/37007
Ba Fe 2 As 2,{},"{'Ba': 1, 'Fe': 2, 'As': 2}",38.0,0.0,,,10.1209/0295-5075/104/37007
Sr Fe 2 As 2,{},"{'Sr': 1, 'Fe': 2, 'As': 2}",38.0,0.0,,,10.1209/0295-5075/104/37007
Ca Fe 2 As 2,{},"{'Ca': 1, 'Fe': 2, 'As': 2}",38.0,0.0,,,10.1209/0295-5075/104/37007
Ce Ir In 5,{},"{'Ce': 1, 'Ir': 1, 'In': 5}",1.2,0.0,,,10.1103/physrevb.93.075116
Ce Ir In 5,{},"{'Ce': 1, 'Ir': 1, 'In': 5}",0.4,0.0,,,10.1103/physrevb.93.075116