Material,Substitutions,Composition,Tc (K),Pressure (GPa),Shape,Substrate,DOI
La F 0.05 O 0.95 Fe As,{},"{'La': 1, 'F': 0.05, 'O': 0.95, 'Fe': 1, 'As': 1}",26.3,0.0,,,10.1088/1367-2630/11/7/075007
Gd 1-x Th x O Fe As,{'x': []},,56.0,0.0,,,10.1088/1367-2630/11/7/075007
Ba 0.6 K 0.4 Fe 2 As 2,{},"{'Ba': 0.6, 'K': 0.4, 'Fe': 2, 'As': 2}",38.0,0.0,,,10.1088/1367-2630/11/7/075007
La O 1-x F x Fe As,{'x': []},,57.0,0.0,,,10.1088/1367-2630/11/7/075007
Fe 1.03 Te,{},"{'Fe': 1.03, 'Te': 1}",12.4,0.0,single crystal,,10.1088/1367-2630/11/7/075007
Sm O 0.9 F 0.1 Fe As,{},"{'Sm': 1, 'O': 0.9, 'F': 0.1, 'Fe': 1, 'As': 1}",55.0,0.0,,,10.1088/1367-2630/11/7/075007
Li Fe As,{},"{'Li': 1, 'Fe': 1, 'As': 1}",18.0,0.0,,,10.1088/1367-2630/11/7/075007
Nb 3 Sn,{},"{'Nb': 3, 'Sn': 1}",17.9,0.0,,,10.1103/physrevb.101.104510
Ce Co In 5,{},"{'Ce': 1, 'Co': 1, 'In': 5}",2.3,0.0,,,10.1103/physrevb.101.104510
Rh 9 In 4 S 4,{},"{'Rh': 9, 'In': 4, 'S': 4}",2.25,0.0,,,10.1103/physrevb.101.104510
K Fe 2 As 2,{},"{'K': 1, 'Fe': 2, 'As': 2}",3.5,0.0,,,10.1103/physrevb.101.104510
Sr 2 Ru O 4,{},"{'Sr': 2, 'Ru': 1, 'O': 4}",3.0,0.0,,,10.1063/1.2354825
Al,{},{'Al': 1},1.2,0.0,crystal,,10.1016/j.physc.2013.09.008
La Fe As O 1-x F x,{'x': []},,26.0,0.0,,,10.1103/physrevb.88.214419
Ce Co In 5,{},"{'Ce': 1, 'Co': 1, 'In': 5}",2.3,0.0,,,10.1088/0034-4885/79/7/074503
Ba Fe 1.9 Ni 0.1 Fe 2 As 2,{},"{'Ba': 1, 'Fe': 3.9, 'Ni': 0.1, 'As': 2}",19.0,0.0,,,10.3367/ufne.2016.10.038002
Ba (Fe Ni) 2 As 2,{},"{'Ba': 1, 'Fe': 2, 'Ni': 2, 'As': 2}",18.0,0.0,,,10.3367/ufne.2016.10.038002
Ba 1-x K x Fe 2 As 2,{'x': []},,38.0,0.0,,,10.3367/ufne.2016.10.038002
Th N O Fe As,{},"{'Th': 1, 'N': 1, 'O': 1, 'Fe': 1, 'As': 1}",30.0,0.0,,,10.3367/ufne.2016.10.038002
Ba Fe 2-x Ni x As 2,{'x': []},,20.0,0.0,single crystals,,10.3367/ufne.2016.10.038002
Ba Fe 1.82 Ni 0.18 As 2,{},"{'Ba': 1, 'Fe': 1.82, 'Ni': 0.18, 'As': 2}",9.3,0.0,,,10.3367/ufne.2016.10.038002
Sm O Fe As,{},"{'Sm': 1, 'O': 1, 'Fe': 1, 'As': 1}",56.0,0.0,,,10.3367/ufne.2016.10.038002
Ba 0.65 K 0.35 Fe 2 As 2,{},"{'Ba': 0.65, 'K': 0.35, 'Fe': 2, 'As': 2}",34.0,0.0,,,10.3367/ufne.2016.10.038002
Ba (Fe Ni) 2 As 2,{},"{'Ba': 1, 'Fe': 2, 'Ni': 2, 'As': 2}",21.0,0.0,single crystals,,10.3367/ufne.2016.10.038002
Ba Fe 1.92 Ni 0.08 As 2,{},"{'Ba': 1, 'Fe': 1.92, 'Ni': 0.08, 'As': 2}",19.0,0.0,single crystal,,10.3367/ufne.2016.10.038002
B 2,{},{'B': 2},39.0,0.0,,,10.1140/epjb/e2005-00163-x
Y Ba 2 Cu 3 O 7-δ,{'δ': []},,10.0,0.0,single crystals,,10.1103/physrevlett.81.1094
O P 91,{},"{'O': 1, 'P': 91}",69.0,0.0,,,10.1103/physrevb.76.165115
Bi 2 Sr 2 Ca Cu 2 O 8,{},"{'Bi': 2, 'Sr': 2, 'Ca': 1, 'Cu': 2, 'O': 8}",69.0,0.0,,,10.1103/physrevb.76.165115
Y Ba 2 Cu 3 O 7,{},"{'Y': 1, 'Ba': 2, 'Cu': 3, 'O': 7}",91.0,0.0,,,10.1103/physrevb.69.180501
Y Ba 2 Cu 3 O 7,{},"{'Y': 1, 'Ba': 2, 'Cu': 3, 'O': 7}",72.0,0.0,,,10.1103/physrevb.69.180501
Cs 3 C 60,{},"{'Cs': 3, 'C': 60}",40.0,15.0,,,
Sm,{},{'Sm': 1},4.0,0.0,,,
Cs 2 Rb C 60,{},"{'Cs': 2, 'Rb': 1, 'C': 60}",33.0,0.0,,,
K 3,{},{'K': 3},120.0,0.0,,,
Sm,{},{'Sm': 1},6.0,0.0,,,
K 3.3,{},{'K': 3.3},7.0,0.0,,,
Na Al Si,{},"{'Na': 1, 'Al': 1, 'Si': 1}",6.8,0.0,,,
Na Al Si,{},"{'Na': 1, 'Al': 1, 'Si': 1}",9.0,2.0,,,
Li Fe P,{},"{'Li': 1, 'Fe': 1, 'P': 1}",6.0,0.0,,,
Na Al Ge,{},"{'Na': 1, 'Al': 1, 'Ge': 1}",1.8,0.0,,,
Li x Ti N Cl,{'x': []},,6.98,0.0,,,
Mg B 2,{},"{'Mg': 1, 'B': 2}",38.7,0.0,,,
Na Al Si,{},"{'Na': 1, 'Al': 1, 'Si': 1}",38.7,0.0,,,
Mo 20 Re 80,{},"{'Mo': 20, 'Re': 80}",8.0,0.0,,,10.1088/0957-4484/27/13/135202
Mo 20 Re 80,{},"{'Mo': 20, 'Re': 80}",8.0,0.0,films,,10.1088/0957-4484/27/13/135202
Mo 20 Re 80,{},"{'Mo': 20, 'Re': 80}",8.3,0.0,,,10.1088/0957-4484/27/13/135202
Mo 20 Re 80,{},"{'Mo': 20, 'Re': 80}",9.2,0.0,film,,10.1088/0957-4484/27/13/135202
Mg B 2,{},"{'Mg': 1, 'B': 2}",39.0,0.0,,,10.1088/0953-2048/29/11/115002
Ce Pt 3 Si,{},"{'Ce': 1, 'Pt': 3, 'Si': 1}",0.46,0.0,,,10.1143/jpsj.78.014705
Ce Pt 3 Si,{},"{'Ce': 1, 'Pt': 3, 'Si': 1}",0.8,0.0,,,10.1143/jpsj.78.014705
La Pt 3 Si,{},"{'La': 1, 'Pt': 3, 'Si': 1}",0.6,0.0,,,10.1143/jpsj.78.014705
Ce Ir Si 3,{},"{'Ce': 1, 'Ir': 1, 'Si': 3}",1.6,0.0,,,10.1143/jpsj.78.014705
Ce Pt 3 Si,{},"{'Ce': 1, 'Pt': 3, 'Si': 1}",0.46,0.0,single crystal,,10.1143/jpsj.78.014705
Hf V 2 Ga 4,{},"{'Hf': 1, 'V': 2, 'Ga': 4}",3.9,0.0,,,10.1103/physrevresearch.2.022001
Yb Mo 2 Ga 4,{},"{'Yb': 1, 'Mo': 2, 'Ga': 4}",3.9,0.0,,,10.1103/physrevresearch.2.022001
Tm 2 Fe 3 Si 5,{},"{'Tm': 2, 'Fe': 3, 'Si': 5}",1.8,0.0,,,10.1088/0953-8984/20/23/235243
Tm 2 Fe 3 Si 5,{},"{'Tm': 2, 'Fe': 3, 'Si': 5}",3.1,0.0,,,10.1088/0953-8984/20/23/235243
Mg B 2,{},"{'Mg': 1, 'B': 2}",39.0,0.0,,,10.1103/physrevb.65.064506
Fe S C,{},"{'Fe': 1, 'S': 1, 'C': 1}",9.0,0.0,,,10.1103/physrevb.93.014507
Fe Se,{},"{'Fe': 1, 'Se': 1}",9.0,0.0,,,10.1103/physrevb.93.014507
Na x Co O 2,{'x': []},,5.0,0.0,,,10.1088/0953-8984/16/41/021
Pr 0.7 Ca 0.3 Mn O 3,{},"{'Pr': 0.7, 'Ca': 0.3, 'Mn': 1, 'O': 3}",120.0,0.0,,,10.1063/1.1380412
Sr Ti O 3,{},"{'Sr': 1, 'Ti': 1, 'O': 3}",90.0,0.0,,,10.1103/physrevb.59.1497
Ba (Fe 0.75 Ru 0.25) 2 As 2,{},"{'Ba': 1, 'Fe': 1.5, 'Ru': 0.5, 'As': 2}",15.0,0.0,,,10.1103/physrevb.87.094513
Ba (Fe 1-x Ru x) 2 As 2,{'x': []},,20.0,0.0,,,10.1103/physrevb.87.094513
Na 0.16 Ti N Cl,{},"{'Na': 0.16, 'Ti': 1, 'N': 1, 'Cl': 1}",18.0,0.0,,,10.1103/physrevb.90.186501
Li 0.13 Ti N Cl,{},"{'Li': 0.13, 'Ti': 1, 'N': 1, 'Cl': 1}",5.9,0.0,,,10.1103/physrevb.90.186501
Ti N,{},"{'Ti': 1, 'N': 1}",5.6,0.0,,,10.1103/physrevb.90.186501
K Os 2 O 6,{},"{'K': 1, 'Os': 2, 'O': 6}",9.6,0.0,,,10.1143/jpsj.80.104708
K Os 2 O 6,{},"{'K': 1, 'Os': 2, 'O': 6}",8.8,4.8,,,10.1143/jpsj.80.104708
Rb,{},{'Rb': 1},8.8,10.0,,,10.1143/jpsj.80.104708
Rb Os 2 O 6,{},"{'Rb': 1, 'Os': 2, 'O': 6}",9.3,3.0,single crystal,,10.1143/jpsj.80.104708
K 2 Cr 3 As 3,{},"{'K': 2, 'Cr': 3, 'As': 3}",6.1,0.0,,,10.1103/physrevb.92.060502
Rb 2 Cr 3 As 3,{},"{'Rb': 2, 'Cr': 3, 'As': 3}",6.1,0.0,,,10.1103/physrevb.92.060502
Cs 2 Cr 3 As 3,{},"{'Cs': 2, 'Cr': 3, 'As': 3}",6.1,0.0,,,10.1103/physrevb.92.060502
Mo 2 C,{},"{'Mo': 2, 'C': 1}",5.0,0.0,,,10.1039/c7tc00789b
Mo 2 C,{},"{'Mo': 2, 'C': 1}",12.0,0.0,,,10.1039/c7tc00789b
Mo 2 C (O H) 2,{},"{'Mo': 2, 'C': 1, 'O': 2, 'H': 2}",25.5,0.0,,,10.1039/c7tc00789b
Mo 2 C,{},"{'Mo': 2, 'C': 1}",3.2,0.0,,,10.1039/c7tc00789b
Ti 2 C H 2,{},"{'Ti': 2, 'C': 1, 'H': 2}",1.3,0.0,,,10.1039/c7tc00789b
Nb,{},{'Nb': 1},8.4,0.0,film,,10.1103/physrevb.100.024501
La 2-x Ba x Cu O 4,{'x': [0.095]},"{'La': 1.905, 'Ba': 0.095, 'Cu': 1, 'O': 4}",32.0,0.0,,,10.1016/j.physb.2014.11.056
Ta S 2,{},"{'Ta': 1, 'S': 2}",5.0,0.0,,,10.1016/j.physb.2014.11.056
La Fe As O,{},"{'La': 1, 'Fe': 1, 'As': 1, 'O': 1}",26.0,0.0,,,10.1088/1367-2630/11/10/103050
Sm Fe As O,{},"{'Sm': 1, 'Fe': 1, 'As': 1, 'O': 1}",55.0,0.0,,,10.1088/1367-2630/11/10/103050
Sr 2 Ru O 4,{},"{'Sr': 2, 'Ru': 1, 'O': 4}",1.5,0.0,,,10.1002/andp.200310069
Rb Eu Fe 4 As 4,{},"{'Rb': 1, 'Eu': 1, 'Fe': 4, 'As': 4}",36.5,0.0,sin- gle crystal,,10.1103/physrevb.100.094518
Mg B 2,{},"{'Mg': 1, 'B': 2}",36.0,0.0,,,10.1063/1.2831778
As H 8,{},"{'As': 1, 'H': 8}",141.0,350.0,,,10.1021/acs.chemmater.5b04638
As H 8,{},"{'As': 1, 'H': 8}",150.0,170.0,,,10.1021/acs.chemmater.5b04638
As H 8,{},"{'As': 1, 'H': 8}",150.0,350.0,,,10.1021/acs.chemmater.5b04638
Sb H 4,{},"{'Sb': 1, 'H': 4}",100.0,0.0,,,10.1021/acs.chemmater.5b04638
As H 8,{},"{'As': 1, 'H': 8}",100.0,0.0,,,10.1021/acs.chemmater.5b04638
Sb H 4,{},"{'Sb': 1, 'H': 4}",100.0,150.0,,,10.1021/acs.chemmater.5b04638
H 2 S,{},"{'H': 2, 'S': 1}",150.0,200.0,,,10.1021/acs.chemmater.5b04638
Si H 4,{},"{'Si': 1, 'H': 4}",17.0,100.0,,,10.1021/acs.chemmater.5b04638
Sb H 4,{},"{'Sb': 1, 'H': 4}",102.0,150.0,,,10.1021/acs.chemmater.5b04638
Y Ba Cu O,{},"{'Y': 1, 'Ba': 1, 'Cu': 1, 'O': 1}",90.0,0.0,,,10.1103/physrevb.71.014512
Y Ba 2 Cu 3 O x,{'x': []},,90.0,0.0,film,,10.1103/physrevb.71.014512
Mg B 2,{},"{'Mg': 1, 'B': 2}",38.0,0.0,,,10.1103/physrevb.68.220512
Mg B 2,{},"{'Mg': 1, 'B': 2}",19.0,0.0,,,10.1103/physrevb.68.220512
Mg B 2,{},"{'Mg': 1, 'B': 2}",12.5,0.0,,,10.1103/physrevb.68.220512
Mg B 2,{},"{'Mg': 1, 'B': 2}",25.0,0.0,,,10.1103/physrevb.68.220512
Bi Sr Ca Cu O,{},"{'Bi': 1, 'Sr': 1, 'Ca': 1, 'Cu': 1, 'O': 1}",87.0,0.0,,,10.1103/physrevb.59.r11675
Bi Sr Ca Cu O,{},"{'Bi': 1, 'Sr': 1, 'Ca': 1, 'Cu': 1, 'O': 1}",89.0,0.0,,,10.1103/physrevb.59.r11675
Sr Ti O 3,{},"{'Sr': 1, 'Ti': 1, 'O': 3}",0.1,0.0,,,10.1103/physrevb.101.094514
La Rh Al,{},"{'La': 1, 'Rh': 1, 'Al': 1}",2.4,0.0,,,10.1016/j.ssc.2004.06.024
Sm Fe As O 0.7 F 0.25,{},"{'Sm': 1, 'Fe': 1, 'As': 1, 'O': 0.7, 'F': 0.25}",12.0,0.0,,,10.1103/physrevb.95.014517
Sm Fe As O 0.7 F 0.25,{},"{'Sm': 1, 'Fe': 1, 'As': 1, 'O': 0.7, 'F': 0.25}",50.0,0.0,,,10.1103/physrevb.95.014517
Mg B 2,{},"{'Mg': 1, 'B': 2}",39.0,0.0,,,10.1088/0953-2048/14/5/101
Ba 1-x Na x Ti 2 Sb 2 O,{'x': []},,5.1,0.0,,,10.1103/physrevb.88.140501
Ba 1-x Na x Ti 2 Sb 2 O,{'x': []},,5.0,0.0,,,10.1103/physrevb.88.140501
(La 0.25 Pr 0.75) 0.7 Ca 0.3 Mn O 3,{},"{'La': 0.175, 'Pr': 0.5249999999999999, 'Ca': 0.3, 'Mn': 1, 'O': 3}",120.0,0.0,,,
(La 0.25 Pr 0.75) 0.7 Ca 0.3 Mn O 3,{},"{'La': 0.175, 'Pr': 0.5249999999999999, 'Ca': 0.3, 'Mn': 1, 'O': 3}",40.0,0.0,,,
Pd Te 2,{},"{'Pd': 1, 'Te': 2}",1.6,0.0,,,10.1103/physrevb.99.134509
Pd Te 2,{},"{'Pd': 1, 'Te': 2}",1.65,0.0,,,10.1103/physrevb.99.134509
Sr x Bi 2 Se 3,{'x': []},,3.0,0.0,,,10.1103/physrevb.99.134509
Cu x Bi 2 Se 3,{'x': []},,3.5,0.0,,,10.1103/physrevb.99.134509
Nb x Bi 2 Se 3,{'x': []},,3.4,0.0,,,10.1103/physrevb.99.134509
Tl x Bi 2 Se 3,{'x': []},,2.28,0.0,,,10.1103/physrevb.99.134509
La H 10,{},"{'La': 1, 'H': 10}",260.0,170.0,,,10.7566/jpsj.84.104706
Ce H 9,{},"{'Ce': 1, 'H': 9}",12.0,0.0,,,10.7566/jpsj.84.104706
La H 10,{},"{'La': 1, 'H': 10}",233.0,170.0,,,10.7566/jpsj.84.104706
H 3 S,{},"{'H': 3, 'S': 1}",75.0,100.0,,,10.7566/jpsj.84.104706
La Fe As,{},"{'La': 1, 'Fe': 1, 'As': 1}",28.0,0.0,,,10.1016/j.physc.2010.09.012
Na V O 3,{},"{'Na': 1, 'V': 1, 'O': 3}",34.0,0.0,,,
Na V 2 O 5,{},"{'Na': 1, 'V': 2, 'O': 5}",34.0,0.0,,,
Cd 2 Re 2 O 7,{},"{'Cd': 2, 'Re': 2, 'O': 7}",1.0,0.0,,,10.1103/physrevb.83.104503
K Os 2 O 6,{},"{'K': 1, 'Os': 2, 'O': 6}",9.7,0.0,,,10.1103/physrevb.83.104503
Cs Os 2 O 6,{},"{'Cs': 1, 'Os': 2, 'O': 6}",9.7,0.0,,,10.1103/physrevb.83.104503
Rb Os 2 O 6,{},"{'Rb': 1, 'Os': 2, 'O': 6}",9.7,0.0,,,10.1103/physrevb.83.104503
K x Os 2 O 6,{'x': []},,6.1,0.0,,,10.1103/physrevb.83.104503
Ca 4 Al 2 O 6 Fe 2 P 2,{},"{'Ca': 4, 'Al': 2, 'O': 6, 'Fe': 2, 'P': 2}",17.0,0.0,,,10.1103/physrevb.87.174528
Sr 4 Sc 2 O 6 Fe 2 P 2,{},"{'Sr': 4, 'Sc': 2, 'O': 6, 'Fe': 2, 'P': 2}",17.0,0.0,,,10.1103/physrevb.87.174528
Nb 3 Sn,{},"{'Nb': 3, 'Sn': 1}",18.3,0.0,,,10.1103/physrevb.74.024513
Nb 3 Sn 6,{},"{'Nb': 3, 'Sn': 6}",43.0,0.0,,,10.1103/physrevb.74.024513
Nb 3 Ge 2,{},"{'Nb': 3, 'Ge': 2}",23.0,0.0,,,10.1103/physrevb.74.024513
Mg B 2,{},"{'Mg': 1, 'B': 2}",20.0,0.0,,,10.1088/1361-6668/aa9b61
La 1.84 Sr 0.16 Cu O 4,{},"{'La': 1.84, 'Sr': 0.16, 'Cu': 1, 'O': 4}",36.0,0.0,,,10.1038/nphoton.2011.124
Nb,{},{'Nb': 1},9.1,0.0,,,
Mg B 2,{},"{'Mg': 1, 'B': 2}",38.6,0.0,single crystals,,10.1103/physrevb.68.060501
Mg B 2,{},"{'Mg': 1, 'B': 2}",40.0,0.0,,,10.1038/s41524-019-0191-2
La Fe P O,{},"{'La': 1, 'Fe': 1, 'P': 1, 'O': 1}",7.0,0.0,,,10.1143/jpsj.77.094715
La Fe P O,{},"{'La': 1, 'Fe': 1, 'P': 1, 'O': 1}",7.16,0.0,,,10.1143/jpsj.77.094715
La Fe P O 0.94 F 0.06,{},"{'La': 1, 'Fe': 1, 'P': 1, 'O': 0.94, 'F': 0.06}",5.8,0.0,,,10.1143/jpsj.77.094715
La Fe P O,{},"{'La': 1, 'Fe': 1, 'P': 1, 'O': 1}",5.8,0.0,,,10.1143/jpsj.77.094715
La Fe P O,{},"{'La': 1, 'Fe': 1, 'P': 1, 'O': 1}",8.0,0.0,,,10.1143/jpsj.77.094715
La Fe P O,{},"{'La': 1, 'Fe': 1, 'P': 1, 'O': 1}",3.3,0.0,,,10.1143/jpsj.77.094715
La Fe As O,{},"{'La': 1, 'Fe': 1, 'As': 1, 'O': 1}",26.0,0.0,,,10.1143/jpsj.77.094715
Al C 6,{},"{'Al': 1, 'C': 6}",100.0,0.0,,,10.1063/1.439573
Al C 6,{},"{'Al': 1, 'C': 6}",100.0,30.0,,,10.1063/1.439573
H,{},{'H': 1},33.0,0.0,,,10.1063/1.439573
Y H 6,{},"{'Y': 1, 'H': 6}",240.0,165.0,,,10.1063/1.439573
H,{},{'H': 1},39.0,0.0,,,10.1063/1.439573
S H 3,{},"{'S': 1, 'H': 3}",200.0,200.0,,,10.1063/1.439573
B C 6,{},"{'B': 1, 'C': 6}",30.0,0.0,,,10.1063/1.439573
Cl C 6,{},"{'Cl': 1, 'C': 6}",40.0,0.0,,,10.1063/1.439573
Si H 4,{},"{'Si': 1, 'H': 4}",17.0,96.0,,,10.1016/j.jpcs.2012.12.024
Mg B 2,{},"{'Mg': 1, 'B': 2}",39.4,0.0,,,10.1016/j.jpcs.2012.12.024
Hg Ba 2 Ca 2 Cu 3 O 8+δ,{'δ': []},,135.0,0.0,,,10.1016/j.jpcs.2012.12.024
Hg Ba 2 Ca 2 Cu 3 O 8+δ,{'δ': []},,164.0,31.0,,,10.1016/j.jpcs.2012.12.024
La 2-x Ba x Cu O 4,{'x': [0.125]},"{'La': 1.875, 'Ba': 0.125, 'Cu': 1, 'O': 4}",42.0,0.0,,,10.1103/physrevb.77.224410
La 2-x Ba x Cu O 4,{'x': [0.095]},"{'La': 1.905, 'Ba': 0.095, 'Cu': 1, 'O': 4}",27.0,0.0,single crystal,,10.1103/physrevb.77.224410
La 2 Cu O 4+y,{'y': []},,42.0,0.0,,,10.1103/physrevb.77.224410
Nb,{},{'Nb': 1},9.25,0.0,,,10.1063/1.4866013
Mg C Ni 3,{},"{'Mg': 1, 'C': 1, 'Ni': 3}",8.0,0.0,,,10.1103/physrevb.64.140507
Fe Se,{},"{'Fe': 1, 'Se': 1}",50.0,0.0,,,10.1103/physrevb.96.045130
Fe Se,{},"{'Fe': 1, 'Se': 1}",60.0,0.0,,,10.1103/physrevb.96.045130
Ba 0.6 K 0.4 Fe 2 As 2,{},"{'Ba': 0.6, 'K': 0.4, 'Fe': 2, 'As': 2}",38.0,0.0,,,10.1209/0295-5075/109/17011
Ba 1-x K x Fe 2 As 2,{'x': []},,23.0,0.0,,,10.1209/0295-5075/109/17011
Ba 1-x K x Fe 2 As 2,{'x': []},,38.0,0.0,,,10.1209/0295-5075/109/17011
La O Fe As,{},"{'La': 1, 'O': 1, 'Fe': 1, 'As': 1}",26.0,0.0,,,
La Fe P O,{},"{'La': 1, 'Fe': 1, 'P': 1, 'O': 1}",5.8,0.0,,,10.1016/j.physc.2009.03.045
Y Ba Cu O,{},"{'Y': 1, 'Ba': 1, 'Cu': 1, 'O': 1}",41.5,0.0,,,10.1103/physrevb.77.104533
Y Ba Cu O,{},"{'Y': 1, 'Ba': 1, 'Cu': 1, 'O': 1}",91.7,0.0,,,10.1103/physrevb.77.104533
La (O 1-x F x) Fe As,{'x': []},,26.0,0.0,,,10.1088/0953-8984/26/18/185701
Sm (O 1-x F x) Fe As,{'x': []},,55.0,0.0,,,10.1088/0953-8984/26/18/185701
Fe Te 0.5 Se 0.5,{},"{'Fe': 1, 'Te': 0.5, 'Se': 0.5}",14.5,0.0,single crystalline,,10.1088/0953-8984/26/18/185701
Ta S 2,{},"{'Ta': 1, 'S': 2}",3.4,0.0,,,10.1038/s41535-018-0107-2
Ta,{},{'Ta': 1},0.23,0.0,film,,10.1103/physrevlett.97.057005
Nb 3 Sn,{},"{'Nb': 3, 'Sn': 1}",18.0,0.0,,,10.1063/1.2192384
Y Ba 2 Cu 3 O 6.333,{},"{'Y': 1, 'Ba': 2, 'Cu': 3, 'O': 6.333}",17.0,0.0,,,10.1103/physrevb.78.214508
Y Ba 2 Cu 3 O 6.9,{},"{'Y': 1, 'Ba': 2, 'Cu': 3, 'O': 6.9}",90.0,0.0,,,10.1103/physrevb.58.12323
Y Ba 2 Cu 3 O 6.6,{},"{'Y': 1, 'Ba': 2, 'Cu': 3, 'O': 6.6}",60.0,0.0,,,10.1103/physrevb.58.12323
Y Ba 2 Cu 3 O 6+x,{'x': []},,93.0,0.0,,,10.1103/revmodphys.76.909
Ga 1-x Mn x As,{'x': []},,110.0,0.0,,,10.1063/1.1529079
Ga 0.94 Mn 0.06,{},"{'Ga': 0.94, 'Mn': 0.06}",140.0,0.0,,,10.1063/1.1529079
Ga 1-x Mn x As,{'x': []},,4.0,0.0,,,10.1063/1.1529079
La 1-x Sm x O 0.5 F 0.5 Bi S 2,{'x': []},,5.4,0.0,,,10.1209/0295-5075/108/47007
Sm O 0.5 F 0.5 Bi S 2,{},"{'Sm': 1, 'O': 0.5, 'F': 0.5, 'Bi': 1, 'S': 2}",0.27,0.0,,,10.1209/0295-5075/108/47007
H 2 S,{},"{'H': 2, 'S': 1}",190.0,170.0,,,10.1209/0295-5075/108/47007
La O 0.5 F 0.5 Bi S 2,{},"{'La': 1, 'O': 0.5, 'F': 0.5, 'Bi': 1, 'S': 2}",10.6,0.0,,,10.1209/0295-5075/108/47007
Fe Te 0.5 Se 0.5,{},"{'Fe': 1, 'Te': 0.5, 'Se': 0.5}",15.0,0.0,,,10.1103/physrevb.96.134503
Li Fe Te Se,{},"{'Li': 1, 'Fe': 1, 'Te': 1, 'Se': 1}",30.0,0.0,,,10.1103/physrevb.96.134503
Fe Se,{},"{'Fe': 1, 'Se': 1}",15.0,0.0,,,10.1103/physrevb.96.134503
I B S Cs,{},"{'I': 1, 'B': 1, 'S': 1, 'Cs': 1}",8.0,0.0,,,10.1103/physrevb.96.134503
Rb 0.93 Fe 1.7 Se 2.0,{},"{'Rb': 0.93, 'Fe': 1.7, 'Se': 2.0}",30.0,0.0,,,10.1103/physrevb.84.184517
Ba 1-x K x Ti 2 Sb 2 O,{'x': [0.12]},"{'Ba': 0.88, 'K': 0.12, 'Ti': 2, 'Sb': 2, 'O': 1}",6.1,0.0,,,10.1103/physrevb.93.140501
Cu x Bi 2 Se 3,{'x': []},,3.8,0.0,,,10.1103/physrevb.94.094522
Nb N,{},"{'Nb': 1, 'N': 1}",11.0,0.0,film,,10.1134/s0021364015010075
Y Ba 2 Cu 3 O 6.95,{},"{'Y': 1, 'Ba': 2, 'Cu': 3, 'O': 6.95}",92.5,0.0,single crystals,,10.1103/physrevlett.88.177401
Y Ba 2 (Cu 1-x Ni x) 3 O 6.95,{'x': [0.01]},"{'Y': 1, 'Ba': 2, 'Cu': 2.9699999999999998, 'Ni': 0.03, 'O': 6.95}",92.5,0.0,single crystals,,10.1103/physrevlett.88.177401
Rb Fe 2 As 2,{},"{'Rb': 1, 'Fe': 2, 'As': 2}",2.1,0.0,single crystal,,10.1103/physrevb.91.024502
Cs Fe 2 As 2,{},"{'Cs': 1, 'Fe': 2, 'As': 2}",2.2,0.0,polycrystal,,10.1103/physrevb.91.024502
Bi 2 Sr 2 Ca Cu 2 O 8+δ,{'δ': []},,65.0,0.0,,,
K Fe 2 As 2,{},"{'K': 1, 'Fe': 2, 'As': 2}",3.5,0.0,,,10.1103/physrevb.89.220509
Sr 2 Ru O 4,{},"{'Sr': 2, 'Ru': 1, 'O': 4}",1.0,0.0,,,10.1016/s0378-4371(99)00568-3
La O 0.5 F 0.5 Bi S 2,{},"{'La': 1, 'O': 0.5, 'F': 0.5, 'Bi': 1, 'S': 2}",10.0,0.0,,,10.1103/physrevb.87.115124
Mg B 2,{},"{'Mg': 1, 'B': 2}",39.0,0.0,,,10.1557/jmr.2001.0375
Ce Co In 5,{},"{'Ce': 1, 'Co': 1, 'In': 5}",2.7,0.0,,,10.1143/jpsj.78.103703
Ce Ir Si 3,{},"{'Ce': 1, 'Ir': 1, 'Si': 3}",1.6,0.0,,,10.1143/jpsj.78.103703
Hg Ba 2 Cu O 6,{},"{'Hg': 1, 'Ba': 2, 'Cu': 1, 'O': 6}",87.0,0.0,single crystals,,10.1088/1367-2630/aa6277
Hg Ba 2 Cu O 4+δ,{'δ': []},,97.0,0.0,,,10.1088/1367-2630/aa6277
B 0.63 K 0.37 Bi O 3,{},"{'B': 0.63, 'K': 0.37, 'Bi': 1, 'O': 3}",31.0,0.0,single crystals,,10.1016/j.physc.2003.12.007
Sr 0.9 Nd 0.1 Cu O 2,{},"{'Sr': 0.9, 'Nd': 0.1, 'Cu': 1, 'O': 2}",24.0,0.0,,,
Ba 2 Ca 2 Cu 3 O 6 F 2,{},"{'Ba': 2, 'Ca': 2, 'Cu': 3, 'O': 6, 'F': 2}",55.0,0.0,,,10.1155/2010/250891
F,{},{'F': 1},55.0,0.0,,,10.1155/2010/250891
La 2 Cu O 4,{},"{'La': 2, 'Cu': 1, 'O': 4}",50.0,0.0,,,10.1155/2010/250891
La Fe As O 1-x F x,{'x': []},,26.0,0.0,,,10.1155/2010/250891
Mg B 2,{},"{'Mg': 1, 'B': 2}",40.0,0.0,,,10.1155/2010/250891
Na x W O 3,{'x': []},,1.0,0.0,,,10.1155/2010/250891
Na x Ca 2-x-y Cu O 2 Cl 2,"{'x': [], 'y': []}",,40.0,0.0,,,10.1155/2010/250891
La O Fe As,{},"{'La': 1, 'O': 1, 'Fe': 1, 'As': 1}",0.8,0.0,,,10.1103/physrevlett.101.026403
La O Fe As,{},"{'La': 1, 'O': 1, 'Fe': 1, 'As': 1}",7.0,0.0,,,10.1103/physrevlett.101.026403
La O Fe As,{},"{'La': 1, 'O': 1, 'Fe': 1, 'As': 1}",26.0,0.0,,,10.1103/physrevlett.101.026403
La (O 1-x F x) Fe As,{'x': [0.12]},"{'La': 1, 'O': 0.88, 'F': 0.12, 'Fe': 1, 'As': 1}",26.0,0.0,,,10.1103/physrevlett.101.026403
Mg B 2,{},"{'Mg': 1, 'B': 2}",39.0,0.0,,,10.1103/physrevlett.101.026403
La O Fe P,{},"{'La': 1, 'O': 1, 'Fe': 1, 'P': 1}",7.0,0.0,,,10.1103/physrevlett.101.026403
Hg Ba 2 Ca 4 Cu 5 O x,{'x': []},,108.0,0.0,,,10.1103/physrevb.76.140506
Y Ba 2 Cu 3 O 7-δ,{'δ': []},,87.0,0.0,,,10.1103/physrevb.76.140506
Hg Ba 2 Ca 3 Cu 4 O x,{'x': []},,125.0,0.0,,,10.1103/physrevb.76.140506
Bi 2 Sr 2 Ca Cu 2 O x,{'x': []},,60.0,0.0,,,10.1103/physrevb.76.140506
Sr 0.9 La 0.1 Cu O 2,{},"{'Sr': 0.9, 'La': 0.1, 'Cu': 1, 'O': 2}",43.0,0.0,,,10.1103/physrevb.76.140506
Hg Ba 2 Ca 2 Cu 3 O x,{'x': []},,133.0,0.0,,,10.1103/physrevb.76.140506
Nd 1.85 Ce 0.15 Cu O 4,{},"{'Nd': 1.85, 'Ce': 0.15, 'Cu': 1, 'O': 4}",23.0,0.0,,,10.1103/physrevb.76.140506
Cd 2 Re 2 O 7,{},"{'Cd': 2, 'Re': 2, 'O': 7}",1.47,0.0,single crystals,,10.1103/physrevb.64.180503
Cd 2 Re 2 O 7,{},"{'Cd': 2, 'Re': 2, 'O': 7}",1.47,0.0,single crys- tals,,10.1103/physrevb.64.180503
Al,{},{'Al': 1},1.5,0.0,,,10.1007/s10948-012-1767-y
(Ba 0.6 K 0.4) Fe 2 As 2,{},"{'Ba': 0.6, 'K': 0.4, 'Fe': 2, 'As': 2}",38.5,0.0,,,10.1016/j.scib.2018.11.017
Mg B 2,{},"{'Mg': 1, 'B': 2}",39.0,0.0,,,10.1063/1.1407854
Mg B 2,{},"{'Mg': 1, 'B': 2}",39.0,0.0,thin films,,10.1063/1.1407854
Mg B 2,{},"{'Mg': 1, 'B': 2}",39.0,0.0,thin films,Al 2 O 3,10.1063/1.1407854
Mg B 2,{},"{'Mg': 1, 'B': 2}",39.0,0.0,thin film,Al 2 O 3,10.1063/1.1407854
Mg B 2,{},"{'Mg': 1, 'B': 2}",37.4,0.0,thin film,Al 2 O 3,10.1063/1.1407854
Al 2 O 3,{},"{'Al': 2, 'O': 3}",39.0,0.0,,,10.1063/1.1407854
Mg B 2,{},"{'Mg': 1, 'B': 2}",38.0,0.0,film,MgO,10.1063/1.1407854
Mg B 2,{},"{'Mg': 1, 'B': 2}",35.0,0.0,film,,10.1016/j.physc.2007.01.008
Mg B 2,{},"{'Mg': 1, 'B': 2}",40.0,0.0,,,10.1016/j.physc.2007.01.008
Mg B 2,{},"{'Mg': 1, 'B': 2}",35.0,0.0,,,10.1016/j.physc.2007.01.008
H 3 S 0.9 P 0.1,{},"{'H': 3, 'S': 0.9, 'P': 0.1}",265.0,170.0,,,
H 3 S 0.7 Te 0.3,{},"{'H': 3, 'S': 0.7, 'Te': 0.3}",161.0,170.0,,,
H 3 Se,{},"{'H': 3, 'Se': 1}",194.0,170.0,,,