Material,Substitutions,Composition,Tc (K),Pressure (GPa),Shape,Substrate,DOI
Bi 2 Sr 2 Ca Cu 2 O 8,{},"{'Bi': 2, 'Sr': 2, 'Ca': 1, 'Cu': 2, 'O': 8}",92.0,0.0,crystals,,10.1109/77.620906
Mg B 2,{},"{'Mg': 1, 'B': 2}",39.0,0.0,,,10.1007/978-3-642-22652-6_1
Ca 0.4 Nd 0.6 Fe As F,{},"{'Ca': 0.4, 'Nd': 0.6, 'Fe': 1, 'As': 1, 'F': 1}",57.4,0.0,,,10.1209/0295-5075/85/67003
Pr Fe As O,{},"{'Pr': 1, 'Fe': 1, 'As': 1, 'O': 1}",52.0,0.0,,,10.1209/0295-5075/85/67003
Ca Fe As F,{},"{'Ca': 1, 'Fe': 1, 'As': 1, 'F': 1}",22.0,0.0,,,10.1209/0295-5075/85/67003
Sr Fe As F 15,{},"{'Sr': 1, 'Fe': 1, 'As': 1, 'F': 15}",32.0,0.0,,,10.1209/0295-5075/85/67003
La Fe As O 1-x F x,{'x': []},,26.0,0.0,,,10.1209/0295-5075/85/67003
Fe Se,{},"{'Fe': 1, 'Se': 1}",77.0,0.0,monolayer,,10.1088/0953-8984/25/10/105506
Tl 2 Ba 2 Ca Cu 2 O 8+δ,{'δ': []},,62.0,0.0,,,
Y Ba 2 Cu 3 O 6.69,{},"{'Y': 1, 'Ba': 2, 'Cu': 3, 'O': 6.69}",103.0,0.0,,,
Ba K Fe As Ag Pb 5,{},"{'Ba': 1, 'K': 1, 'Fe': 1, 'As': 1, 'Ag': 1, 'Pb': 5}",28.5,0.0,,,10.1088/0953-2048/25/3/035020
Ba K Fe As Pb 5,{},"{'Ba': 1, 'K': 1, 'Fe': 1, 'As': 1, 'Pb': 5}",28.5,0.0,,,10.1088/0953-2048/25/3/035020
Bi 2 Sr 2 Ca Cu 2 O 8,{},"{'Bi': 2, 'Sr': 2, 'Ca': 1, 'Cu': 2, 'O': 8}",95.0,0.0,,,10.1080/00018730701627707
La O 1-x F x Bi S 2,{'x': []},,10.6,0.0,,,10.7566/jpsj.83.033703
Ce Ir In 5,{},"{'Ce': 1, 'Ir': 1, 'In': 5}",0.4,0.0,,,10.1103/physrevb.70.014511
Tl 2 Ba 2 Ca 2 Cu 3 O 10,{},"{'Tl': 2, 'Ba': 2, 'Ca': 2, 'Cu': 3, 'O': 10}",117.0,0.0,,,10.1103/physrevb.70.014511
Fe Te 0.5 Se 0.5,{},"{'Fe': 1, 'Te': 0.5, 'Se': 0.5}",14.2,0.0,single-crystal,,10.1088/0953-8984/24/45/455703
La O 1-x F x Bi S 2,{'x': []},,10.6,0.0,,,10.1007/s11433-013-5323-y
Bi 4 O 4 S 3,{},"{'Bi': 4, 'O': 4, 'S': 3}",4.5,0.0,,,10.1007/s11433-013-5323-y
Bi 4 O 4 S 3,{},"{'Bi': 4, 'O': 4, 'S': 3}",4.2,0.0,,,10.1007/s11433-013-5323-y
Nb N,{},"{'Nb': 1, 'N': 1}",15.0,0.0,,,10.1103/physrevapplied.6.054014
Pr Ba 2 Cu 3 O 7-δ,{'δ': []},,90.0,0.0,,,10.1680/emr.11.00001
Bi 2 Sr 2 Ca 2 Cu 3 O 10,{},"{'Bi': 2, 'Sr': 2, 'Ca': 2, 'Cu': 3, 'O': 10}",110.0,0.0,,,10.1680/emr.11.00001
Y Ni 2 B 2 C,{},"{'Y': 1, 'Ni': 2, 'B': 2, 'C': 1}",15.5,0.0,single crys- tals,,10.1142/s0217979200002983
Li Fe As,{},"{'Li': 1, 'Fe': 1, 'As': 1}",17.0,0.0,,,10.1103/physrevb.86.144511
Li Fe As,{},"{'Li': 1, 'Fe': 1, 'As': 1}",16.0,0.0,,,10.1103/physrevb.86.144511
Mg B 2,{},"{'Mg': 1, 'B': 2}",39.0,0.0,,,10.1103/physrevlett.86.5974
Mg B 2,{},"{'Mg': 1, 'B': 2}",4.0,0.0,films,,10.1109/tasc.2014.2376183
Zr B 2,{},"{'Zr': 1, 'B': 2}",6.0,0.0,,,10.1103/physrevb.95.094505
Zr 0.96 V 0.04 B 2,{},"{'Zr': 0.96, 'V': 0.04, 'B': 2}",8.33,0.0,,,10.1103/physrevb.95.094505
Mg B 2,{},"{'Mg': 1, 'B': 2}",40.0,0.0,,,10.1103/physrevb.95.094505
Hf 0.97 V 0.03 B 2,{},"{'Hf': 0.97, 'V': 0.03, 'B': 2}",8.33,0.0,,,10.1103/physrevb.95.094505
Mg B 2,{},"{'Mg': 1, 'B': 2}",1.0,0.0,,,10.1103/physrevb.95.094505
Hf 0.97 V 0.03 B 2,{},"{'Hf': 0.97, 'V': 0.03, 'B': 2}",7.31,0.0,,,10.1103/physrevb.95.094505
Mg B 2,{},"{'Mg': 1, 'B': 2}",39.0,0.0,,,10.1103/physrevb.95.094505
Zr B 2,{},"{'Zr': 1, 'B': 2}",5.5,0.0,,,10.1103/physrevb.95.094505
Zr B 12,{},"{'Zr': 1, 'B': 12}",5.5,0.0,,,10.1103/physrevb.95.094505
Zr 0.96 V 0.04 B 2,{},"{'Zr': 0.96, 'V': 0.04, 'B': 2}",7.31,0.0,,,10.1103/physrevb.95.094505
Tl 2 Mn 2 O 7,{},"{'Tl': 2, 'Mn': 2, 'O': 7}",120.0,0.0,,,10.1016/s0921-4526(01)01220-0
Mg B 2,{},"{'Mg': 1, 'B': 2}",39.0,0.0,,,10.1103/physrevb.64.020501
Nb Se 2,{},"{'Nb': 1, 'Se': 2}",7.2,0.0,,,10.1063/1.4874979
Bi 2 Sr 2 Ca Cu 2 O 8+δ,{'δ': []},,82.0,0.0,,,10.1103/physrevb.69.094520
Ce Co In 5,{},"{'Ce': 1, 'Co': 1, 'In': 5}",2.3,0.0,Single crystal,,
Mg B 2,{},"{'Mg': 1, 'B': 2}",39.0,0.0,,,10.1088/0953-2048/20/6/015
La 2-x Sr x Cu O 4,{'x': [0.1]},"{'La': 1.9, 'Sr': 0.1, 'Cu': 1, 'O': 4}",29.0,0.0,,,10.1038/nmat1452
Sr Fe 2-x Ni x As 2,{'x': []},,0.7,0.0,,,10.1103/physrevb.79.224519
Sr Fe 2-x Ni x As 2,{'x': [0.16]},"{'Sr': 1, 'Fe': 1.84, 'Ni': 0.16, 'As': 2}",20.0,0.0,,,10.1103/physrevb.79.224519
Sr Fe 2-x Co x As 2,"{'x': [0.15, 0.1]}","{'Sr': 1, 'Fe': 1.85, 'Co': 0.15, 'As': 2}",10.0,0.0,,,10.1103/physrevb.79.224519
Ba Fe 2-x Co x As 2,{'x': []},,25.0,0.0,,,10.1103/physrevb.79.224519
La O 1-x F x Fe As,{'x': []},,26.0,0.0,,,10.1103/physrevb.79.224519
Sm O 1-x F x Fe As,{'x': []},,55.0,0.0,,,10.1103/physrevb.79.224519
Sr Fe 2-x Ni x As 2,{'x': []},,1.0,0.0,single crystals,,10.1103/physrevb.79.224519
Sr Fe 2 As 2,{},"{'Sr': 1, 'Fe': 2, 'As': 2}",9.8,0.0,,,10.1103/physrevb.79.224519
Sr Fe 2-x Ni x As 2,"{'x': [0.18, 0.15]}","{'Sr': 1, 'Fe': 1.82, 'Ni': 0.18, 'As': 2}",9.8,0.0,,,10.1103/physrevb.79.224519
Gd Cl 3,{},"{'Gd': 1, 'Cl': 3}",2.2,0.0,,,10.1103/physrevb.62.6545
Eu O,{},"{'Eu': 1, 'O': 1}",69.0,0.0,,,10.1103/physrevb.62.6545
K Fe 2 As 2,{},"{'K': 1, 'Fe': 2, 'As': 2}",3.8,0.0,,,10.1016/j.physc.2009.11.103
Ba Fe 2 As 2,{},"{'Ba': 1, 'Fe': 2, 'As': 2}",3.8,0.0,,,10.1016/j.physc.2009.11.103
Rb Fe 2 As 2,{},"{'Rb': 1, 'Fe': 2, 'As': 2}",2.6,0.0,,,10.1016/j.physc.2009.11.103
Cs Fe 2 As 2,{},"{'Cs': 1, 'Fe': 2, 'As': 2}",2.6,0.0,,,10.1016/j.physc.2009.11.103
Mg B 2,{},"{'Mg': 1, 'B': 2}",39.0,0.0,,,10.1103/physrevb.71.012501
Sr Pd 2 Ge 2,{},"{'Sr': 1, 'Pd': 2, 'Ge': 2}",2.7,0.0,single crystals,,10.1103/physrevb.87.094515
Sr Pd 2 Ge 2,{},"{'Sr': 1, 'Pd': 2, 'Ge': 2}",2.7,0.0,crystal,,10.1103/physrevb.87.094515
Sr Pd 2 Ge 2,{},"{'Sr': 1, 'Pd': 2, 'Ge': 2}",3.0,0.0,,,10.1103/physrevb.87.094515
Y Ba 2 Cu 3 O 7,{},"{'Y': 1, 'Ba': 2, 'Cu': 3, 'O': 7}",92.0,0.0,,,
Nd Ba 2 Cu 3 O 6.96,{},"{'Nd': 1, 'Ba': 2, 'Cu': 3, 'O': 6.96}",80.0,0.0,crystal,,
Nd Ba 2 Cu 3 O x,{'x': [6.96]},"{'Nd': 1, 'Ba': 2, 'Cu': 3, 'O': 6.96}",90.0,0.0,,,
Ru As,{},"{'Ru': 1, 'As': 1}",2.0,0.0,,,10.1088/0953-2048/25/8/084016
La Fe As O 1-x F x,{'x': [0.11]},"{'La': 1, 'Fe': 1, 'As': 1, 'O': 0.89, 'F': 0.11}",26.0,0.0,,,10.1088/0953-2048/25/8/084016
Ce Co In 5,{},"{'Ce': 1, 'Co': 1, 'In': 5}",2.3,0.0,,,10.1103/physrevb.65.100514
Sn Te,{},"{'Sn': 1, 'Te': 1}",0.22,0.0,,,10.1038/nphys3109
Yb S,{},"{'Yb': 1, 'S': 1}",1.5,0.0,,,10.1038/nphys3109
Eu S,{},"{'Eu': 1, 'S': 1}",1.5,0.0,,,10.1038/nphys3109
Tb Te 3,{},"{'Tb': 1, 'Te': 3}",4.0,12.4,,,10.1103/physrevlett.102.177002
La 2-x Sr x Cu O 4,{'x': [0.12]},"{'La': 1.88, 'Sr': 0.12, 'Cu': 1, 'O': 4}",12.0,0.0,,,10.1016/s0921-4534(03)00814-1
Y Ba 2 Cu 3 O 6.92,{},"{'Y': 1, 'Ba': 2, 'Cu': 3, 'O': 6.92}",91.0,0.0,,,10.1016/s0921-4534(03)00814-1
Y Ba 2 Cu 3 O 6.97,{},"{'Y': 1, 'Ba': 2, 'Cu': 3, 'O': 6.97}",92.5,0.0,,,10.1016/s0921-4534(03)00814-1
Y Ba 2 Cu 3 O 7-δ,{'δ': []},,90.0,0.0,,,10.1088/1367-2630/11/2/023032
Cr As,{},"{'Cr': 1, 'As': 1}",2.0,0.8,,,
K 2 Cr 3 As 3,{},"{'K': 2, 'Cr': 3, 'As': 3}",6.1,0.0,,,
Rb 2 Cr 3 As 3,{},"{'Rb': 2, 'Cr': 3, 'As': 3}",4.9,0.0,,,
K 2 Cr 3 As 3,{},"{'K': 2, 'Cr': 3, 'As': 3}",1.4,0.0,,,
Sr Ti O 3,{},"{'Sr': 1, 'Ti': 1, 'O': 3}",8.0,0.0,,,10.1103/physrevb.98.214519
Bi 2 Sr 2 Ca Cu 2 O y,{'y': []},,85.0,0.0,single crystals,,10.1063/1.3005418
F,{},{'F': 1},8.0,0.0,film,,10.1088/1367-2630/19/1/013020
F,{},{'F': 1},8.0,0.0,,,10.1088/1367-2630/19/1/013020
Y Ba Cu 3 O 6,{},"{'Y': 1, 'Ba': 1, 'Cu': 3, 'O': 6}",31.0,0.0,,,10.1088/1367-2630/19/1/013020
Y Ba Cu 3 O 7,{},"{'Y': 1, 'Ba': 1, 'Cu': 3, 'O': 7}",100.0,0.0,,,10.1088/1367-2630/19/1/013020
(Ba K) Bi O 3,{},"{'Ba': 1, 'K': 1, 'Bi': 1, 'O': 3}",30.0,0.0,,,10.1088/1367-2630/19/1/013020
La Fe As O,{},"{'La': 1, 'Fe': 1, 'As': 1, 'O': 1}",26.0,0.0,,,10.1007/s10909-012-0673-9
Lu Ni 2 B 2 C,{},"{'Lu': 1, 'Ni': 2, 'B': 2, 'C': 1}",16.9,0.0,sin- gle crystal,,10.1103/physrevb.71.014512
La Fe P O,{},"{'La': 1, 'Fe': 1, 'P': 1, 'O': 1}",55.0,0.0,,,10.1103/physrevb.82.014514
Li Fe P,{},"{'Li': 1, 'Fe': 1, 'P': 1}",6.0,0.0,,,10.1103/physrevb.82.014514
La Fe As O 0.89 F 0.11,{},"{'La': 1, 'Fe': 1, 'As': 1, 'O': 0.89, 'F': 0.11}",26.0,0.0,,,10.1103/physrevb.82.014514
La Fe As O 0.89 F 0.11,{},"{'La': 1, 'Fe': 1, 'As': 1, 'O': 0.89, 'F': 0.11}",43.0,4.0,,,10.1103/physrevb.82.014514
La Ni P O,{},"{'La': 1, 'Ni': 1, 'P': 1, 'O': 1}",26.0,0.0,,,10.1103/physrevb.82.014514
P H 2,{},"{'P': 1, 'H': 2}",40.0,100.0,,,10.1103/physrevb.93.020508
Ca Fe 2 As 2,{},"{'Ca': 1, 'Fe': 2, 'As': 2}",38.0,0.0,,,10.1143/jpsj.78.084719
Sr Fe 2 As 2,{},"{'Sr': 1, 'Fe': 2, 'As': 2}",38.0,0.0,,,10.1143/jpsj.78.084719
Ba Fe 2 As 2,{},"{'Ba': 1, 'Fe': 2, 'As': 2}",38.0,0.0,,,10.1143/jpsj.78.084719
Ba Fe 2 As 2,{},"{'Ba': 1, 'Fe': 2, 'As': 2}",22.0,0.0,,,10.1143/jpsj.78.084719
Mg B 2,{},"{'Mg': 1, 'B': 2}",39.0,0.0,,,10.1103/physrevb.65.064512
Bi 2 Sr 2 Ca 2 Cu 3 O 10,{},"{'Bi': 2, 'Sr': 2, 'Ca': 2, 'Cu': 3, 'O': 10}",92.0,0.0,,,10.1088/1361-6668/ab66e5
Bi 2 Sr 2 Ca Cu 2 O 8,{},"{'Bi': 2, 'Sr': 2, 'Ca': 1, 'Cu': 2, 'O': 8}",92.0,0.0,,,10.1088/1361-6668/ab66e5
Hg Ba 2 Cu O 6,{},"{'Hg': 1, 'Ba': 2, 'Cu': 1, 'O': 6}",97.0,0.0,,,10.1088/1361-6668/ab66e5
Hg Ba 2 Ca Cu 2 O 8,{},"{'Hg': 1, 'Ba': 2, 'Ca': 1, 'Cu': 2, 'O': 8}",97.0,0.0,,,10.1088/1361-6668/ab66e5
Ni Bi,{},"{'Ni': 1, 'Bi': 1}",4.25,0.0,,,10.1016/j.jallcom.2012.11.138
Ni Bi 3,{},"{'Ni': 1, 'Bi': 3}",4.06,0.0,,,10.1016/j.jallcom.2012.11.138
Mg B 2,{},"{'Mg': 1, 'B': 2}",39.0,0.0,,,10.1142/s0217979203016388
Hg Ba 2 Ca 4 Cu 5 O y,{'y': []},,108.0,0.0,,,10.1103/physrevb.78.094504
S H 3,{},"{'S': 1, 'H': 3}",203.0,170.0,,,
Th Pt 4 Ge 12,{},"{'Th': 1, 'Pt': 4, 'Ge': 12}",4.62,0.0,,,
Fe Se,{},"{'Fe': 1, 'Se': 1}",110.0,0.0,monolayer,,10.1088/2053-1591/ab325a
Fe Se,{},"{'Fe': 1, 'Se': 1}",8.0,9.0,,,10.1088/2053-1591/ab325a
La Fe As O 1-x F x,{'x': [0.11]},"{'La': 1, 'Fe': 1, 'As': 1, 'O': 0.89, 'F': 0.11}",26.0,0.0,,,10.1088/2053-1591/ab325a
Fe Se 1-δ,{'δ': []},,8.0,0.0,,,10.1088/2053-1591/ab325a
Sm Fe As O 1-x F x,{'x': [0.15]},"{'Sm': 1, 'Fe': 1, 'As': 1, 'O': 0.85, 'F': 0.15}",56.0,0.0,,,10.1088/2053-1591/ab325a
Sm Fe As O 0.85 F 0.15,{},"{'Sm': 1, 'Fe': 1, 'As': 1, 'O': 0.85, 'F': 0.15}",14.5,0.0,,,10.1103/physrevb.91.165109
Fe Se 9,{},"{'Fe': 1, 'Se': 9}",37.0,9.0,,,10.1103/physrevb.91.165109
Fe Se 1-x,{'x': []},,37.0,0.0,,,10.1103/physrevb.81.224520
Sm Fe As O 0.8 F 0.2,{},"{'Sm': 1, 'Fe': 1, 'As': 1, 'O': 0.8, 'F': 0.2}",14.6,0.0,,,10.1103/physrevb.81.224520
Fe Se x Te 1-x,{'x': [0.5]},"{'Fe': 1, 'Se': 0.5, 'Te': 0.5}",14.6,0.0,,,10.1103/physrevb.81.224520
Fe Se 0.5 Te 0.5,{},"{'Fe': 1, 'Se': 0.5, 'Te': 0.5}",14.6,0.0,single crystals,,10.1103/physrevb.81.224520
La O Ni As,{},"{'La': 1, 'O': 1, 'Ni': 1, 'As': 1}",3.8,0.0,,,10.1103/physrevb.78.060504
La O 0.9 F 0.1 Ni As,{},"{'La': 1, 'O': 0.9, 'F': 0.1, 'Ni': 1, 'As': 1}",2.75,0.0,,,10.1103/physrevb.78.060504
La O Ni As,{},"{'La': 1, 'O': 1, 'Ni': 1, 'As': 1}",2.75,0.0,,,10.1103/physrevb.78.060504
La O 0.9 F 0.1 Ni As,{},"{'La': 1, 'O': 0.9, 'F': 0.1, 'Ni': 1, 'As': 1}",0.05,0.0,,,10.1103/physrevb.78.060504
La O F x Fe As,{'x': []},,26.0,0.0,,,10.1103/physrevb.78.060504
La O Fe As,{},"{'La': 1, 'O': 1, 'Fe': 1, 'As': 1}",2.75,0.0,,,10.1103/physrevb.78.060504
La O 1-x F x Ni As,{'x': []},,0.05,0.0,,,10.1103/physrevb.78.060504
La O Ni P,{},"{'La': 1, 'O': 1, 'Ni': 1, 'P': 1}",3.0,0.0,,,10.1103/physrevb.78.060504
La O Fe P,{},"{'La': 1, 'O': 1, 'Fe': 1, 'P': 1}",4.0,0.0,,,10.1103/physrevb.78.060504
La O 0.9 F 0.1 Fe As,{},"{'La': 1, 'O': 0.9, 'F': 0.1, 'Fe': 1, 'As': 1}",20.0,0.0,,,10.1103/physrevb.78.060504
Sr Fe Ru As 2,{},"{'Sr': 1, 'Fe': 1, 'Ru': 1, 'As': 2}",2.0,0.0,,,10.1103/physrevb.79.214516
La Ru 2 P 2,{},"{'La': 1, 'Ru': 2, 'P': 2}",4.1,0.0,,,10.1103/physrevb.79.214516
Sr Fe 2 As 2,{},"{'Sr': 1, 'Fe': 2, 'As': 2}",27.0,3.0,,,10.1103/physrevb.79.214516
Mg B 2,{},"{'Mg': 1, 'B': 2}",39.0,0.0,Thin Films,,10.1016/j.physc.2019.06.003
Al 2 O 3,{},"{'Al': 2, 'O': 3}",39.0,0.0,,,10.1016/j.physc.2019.06.003
Mg B 2,{},"{'Mg': 1, 'B': 2}",39.0,0.0,,,10.1016/j.physc.2019.06.003
Mg B 2,{},"{'Mg': 1, 'B': 2}",39.0,0.0,thin films,,10.1016/j.physc.2019.06.003
Mg B 2,{},"{'Mg': 1, 'B': 2}",39.0,0.0,films,,10.1016/j.physc.2019.06.003
Ce Co In 5,{},"{'Ce': 1, 'Co': 1, 'In': 5}",2.3,0.0,,,10.7566/jpsj.85.094713
Ce Ir In 5,{},"{'Ce': 1, 'Ir': 1, 'In': 5}",2.3,0.0,,,10.1103/physrevb.64.064506
Ce Rh In 5,{},"{'Ce': 1, 'Rh': 1, 'In': 5}",0.4,0.0,,,10.1103/physrevb.64.064506
Pr 2 Ba 4 Cu 7 O 15-δ,{'δ': [0.2]},"{'Pr': 2, 'Ba': 4, 'Cu': 7, 'O': 14.8}",15.0,0.0,,,10.1103/physrevb.76.014515
Nd (O F) Bi S 2,{},"{'Nd': 1, 'O': 1, 'F': 1, 'Bi': 1, 'S': 2}",5.0,0.0,,,10.1103/physrevb.97.094509
Mg B 2,{},"{'Mg': 1, 'B': 2}",0.059,0.0,,,10.1103/physrevb.97.094509
C 4 K,{},"{'C': 4, 'K': 1}",30.4,0.0,,,10.1088/0256-307x/36/9/097401
C 6 Ca,{},"{'C': 6, 'Ca': 1}",11.5,0.0,,,10.1088/0256-307x/36/9/097401
C 6 Yb,{},"{'C': 6, 'Yb': 1}",6.5,0.0,,,10.1088/0256-307x/36/9/097401
C 6 Ca,{},"{'C': 6, 'Ca': 1}",15.1,0.0,,,10.1088/0256-307x/36/9/097401
C,{},{'C': 1},4.0,0.0,,,10.1088/0256-307x/36/9/097401
C,{},{'C': 1},8.0,1.5,,,10.1088/0256-307x/36/9/097401
C,{},{'C': 1},1.0,0.0,,,10.1088/0256-307x/36/9/097401
Nb Se 2,{},"{'Nb': 1, 'Se': 2}",5.7,0.0,single crystal,,10.1209/epl/i2002-00613-1
V 3 Si,{},"{'V': 3, 'Si': 1}",16.5,0.0,,,10.1103/physrevlett.87.237001
Lu Ni 2 B 2 C,{},"{'Lu': 1, 'Ni': 2, 'B': 2, 'C': 1}",16.0,0.0,,,10.1103/physrevlett.87.237001
Lu Ni 2 B 2 C,{},"{'Lu': 1, 'Ni': 2, 'B': 2, 'C': 1}",15.5,0.0,,,10.1103/physrevlett.87.237001
Bi 2 Sr 2-x La x Cu O 6+δ,"{'δ': [], 'x': []}",,38.0,0.0,,,10.1103/physrevlett.92.177003
Sr 2 Ru O 4,{},"{'Sr': 2, 'Ru': 1, 'O': 4}",30.0,0.0,,,10.1103/physrevb.67.014504
Nb B 2,{},"{'Nb': 1, 'B': 2}",3.87,0.0,,,10.1103/physrevb.63.224522
Nb B 2,{},"{'Nb': 1, 'B': 2}",0.62,0.0,,,10.1103/physrevb.63.224522
Mg B 2,{},"{'Mg': 1, 'B': 2}",39.0,0.0,,,10.1103/physrevb.63.224522
Li B C,{},"{'Li': 1, 'B': 1, 'C': 1}",65.0,0.0,,,10.1103/physrevb.74.094520
Nb,{},{'Nb': 1},9.05,0.0,film,,10.1063/1.5028213
Ba Ni 2 As 2,{},"{'Ba': 1, 'Ni': 2, 'As': 2}",0.7,0.0,,,10.1103/physrevb.97.224505
H 2 S,{},"{'H': 2, 'S': 1}",80.0,100.0,,,10.1038/nature14964
Y Ba 2 Cu 3 O 6.5,{},"{'Y': 1, 'Ba': 2, 'Cu': 3, 'O': 6.5}",57.5,0.0,,,10.1103/physrevlett.100.047003
Y Ba 2 Cu 4 O 8,{},"{'Y': 1, 'Ba': 2, 'Cu': 4, 'O': 8}",80.0,0.0,,,10.1103/physrevlett.100.047003
Bi 2 Sr 2 Ca Cu 2 O 8+δ,{'δ': []},,92.0,0.0,,,10.1063/1.3242339
Mo S 2,{},"{'Mo': 1, 'S': 2}",7.0,0.0,,,10.1038/nnano.2015.314
La 1.93 Sr 0.07 Cu O 4,{},"{'La': 1.93, 'Sr': 0.07, 'Cu': 1, 'O': 4}",16.0,0.0,,,10.1088/0953-8984/14/43/332
La 2 Cu O 4,{},"{'La': 2, 'Cu': 1, 'O': 4}",16.0,0.0,,,10.1088/0953-8984/14/43/332
La 2 Cu O 4,{},"{'La': 2, 'Cu': 1, 'O': 4}",30.0,0.0,,,10.1088/0953-8984/14/43/332
Nb N,{},"{'Nb': 1, 'N': 1}",15.1,0.0,film,,
Pr Pt 4 Ge 12,{},"{'Pr': 1, 'Pt': 4, 'Ge': 12}",7.9,0.0,,,10.1103/physrevb.100.024508
Pr Os 4 Sb 12,{},"{'Pr': 1, 'Os': 4, 'Sb': 12}",1.8,0.0,,,10.1103/physrevb.100.024508
Nb,{},{'Nb': 1},7.0,0.0,,,10.1007/1-4020-7984-2_3
Ca C 6,{},"{'Ca': 1, 'C': 6}",11.5,0.0,,,10.1063/1.2769763
Sr 2 Ru O 4,{},"{'Sr': 2, 'Ru': 1, 'O': 4}",1.5,0.0,,,10.1103/physrevb.95.224509
Ta 2 Pd Se 5,{},"{'Ta': 2, 'Pd': 1, 'Se': 5}",2.5,0.0,,,10.1371/journal.pone.0123667
La O 1-x F x Bi S 2,{'x': []},,10.6,0.0,,,
La Fe As O 1-x F x,{'x': []},,26.0,0.0,,,10.1016/j.jascer.2017.06.009
Sm Fe As O 0.9 H 0.1,{},"{'Sm': 1, 'Fe': 1, 'As': 1, 'O': 0.9, 'H': 0.1}",42.0,0.0,crystal,,10.1016/j.jascer.2017.06.009
Bi 2 Sr 2 Ca Cu 2 O 8,{},"{'Bi': 2, 'Sr': 2, 'Ca': 1, 'Cu': 2, 'O': 8}",90.0,0.0,single-crystals,,10.1103/physrevb.100.064508
Fe Se,{},"{'Fe': 1, 'Se': 1}",8.0,0.0,,,10.1038/srep44024
(La 1-x Sr x) O F e As,"{'x': [0.13], 'e': []}",,25.0,0.0,,,10.1209/0295-5075/82/17009
Rb 0.8 Fe 1.68 Se 2,{},"{'Rb': 0.8, 'Fe': 1.68, 'Se': 2}",31.0,0.0,single crystal,,10.1016/j.physc.2014.05.004
K y Fe 2-x Se 2,"{'x': [], 'y': []}",,30.0,0.0,,,10.1016/j.physc.2014.05.004
Rb y Fe 2-x Se 2,"{'x': [], 'y': []}",,30.0,0.0,,,10.1016/j.physc.2014.05.004
Cs y Fe 2-x Se 2,"{'x': [], 'y': []}",,30.0,0.0,,,10.1016/j.physc.2014.05.004
Rb 0.8 Fe 1.68 Se 2,{},"{'Rb': 0.8, 'Fe': 1.68, 'Se': 2}",31.0,0.0,,,10.1016/j.physc.2014.05.004
Li x Rh B y,"{'x': [], 'y': []}",,5.0,0.0,,,10.1088/2053-1591/1/4/046001
Ba Fe 2 (As 0.7 P 0.3) 2,{},"{'Ba': 1, 'Fe': 2, 'As': 1.4, 'P': 0.6}",30.0,0.0,,,10.1103/physrevb.89.184513
Sr 2 Ru O 4,{},"{'Sr': 2, 'Ru': 1, 'O': 4}",1.35,0.0,single crystals,,
Rb 0.8 Fe 2 Se 2,{},"{'Rb': 0.8, 'Fe': 2, 'Se': 2}",32.0,0.0,,,10.1103/physrevb.92.121101
Ca 10 (Ir 4 As 8) (Fe 2-x Ir x As 2) 5,{'x': []},,16.0,0.0,,,
Ba (Fe 0.935 Co 0.065) 2 As 2,{},"{'Ba': 1, 'Fe': 1.87, 'Co': 0.13, 'As': 2}",23.0,0.0,,,10.1103/physrevb.81.064505
Mg B 2,{},"{'Mg': 1, 'B': 2}",39.0,0.0,,,10.1103/physrevb.66.165103
Ba 1-x K x Fe 2 As 2,{'x': []},,32.0,0.0,,,10.1103/physrevlett.102.187005
K 0.64 Fe 1.44 Se 2.0,{},"{'K': 0.64, 'Fe': 1.44, 'Se': 2.0}",33.0,0.0,sin- gle crystals,,10.1103/physrevb.83.184504
Fe Se,{},"{'Fe': 1, 'Se': 1}",100.0,0.0,,STO,10.1103/physrevb.95.094504
Ce Rh In 5,{},"{'Ce': 1, 'Rh': 1, 'In': 5}",2.1,1.6,,,10.1103/physrevb.69.014515
H 3 S,{},"{'H': 3, 'S': 1}",203.0,150.0,,,10.1103/physrevb.100.184503
Ta 34 Nb 33 Hf 8 Zr 14 Ti 11,{},"{'Ta': 34, 'Nb': 33, 'Hf': 8, 'Zr': 14, 'Ti': 11}",7.3,0.0,,,10.1103/physrevb.100.184503
Sr Fe 2 As 2,{},"{'Sr': 1, 'Fe': 2, 'As': 2}",37.0,0.0,,,10.1103/physrevb.98.035103
Ba Fe 2 As 2,{},"{'Ba': 1, 'Fe': 2, 'As': 2}",40.0,0.0,,,10.1103/physrevb.98.035103
Mg B 2,{},"{'Mg': 1, 'B': 2}",39.0,0.0,,,10.1088/0953-2048/20/4/l02
Bi 2 Sr 2 Ca Cu 2 O 8,{},"{'Bi': 2, 'Sr': 2, 'Ca': 1, 'Cu': 2, 'O': 8}",87.0,0.0,,,10.1103/physrevb.76.214512
Bi 2 Sr 2 Ca Cu 2 O 8+δ,{'δ': []},,87.0,0.0,,,10.1103/physrevb.76.214512
Y Ba 2 (Cu 0.99 Zn 0.01) 3 O 7,{},"{'Y': 1, 'Ba': 2, 'Cu': 2.9699999999999998, 'Zn': 0.03, 'O': 7}",78.0,0.0,,,10.1103/physrevlett.84.5900
Y Ba 2 (Cu 0.99 Zn 0.01) 3 O 7,{},"{'Y': 1, 'Ba': 2, 'Cu': 2.9699999999999998, 'Zn': 0.03, 'O': 7}",80.0,0.0,,,10.1103/physrevlett.84.5900
Y Ba 2 (Cu 0.97 Ni 0.03) 3 O 7,{},"{'Y': 1, 'Ba': 2, 'Cu': 2.91, 'Ni': 0.09, 'O': 7}",80.0,0.0,,,10.1103/physrevlett.84.5900
Y Ba 2 (Cu 0.99 Zn 0.01) 3 O 7,{},"{'Y': 1, 'Ba': 2, 'Cu': 2.9699999999999998, 'Zn': 0.03, 'O': 7}",78.0,0.0,crystal,,10.1103/physrevlett.84.5900
Ti 1-x Nb x Se 2,{'x': []},,0.4,0.0,,,
Cu 0.08 Ti Se 2,{},"{'Cu': 0.08, 'Ti': 1, 'Se': 2}",4.15,0.0,,,
Cu x Ti Se 2,{'x': []},,4.2,0.0,,,
Nb,{},{'Nb': 1},9.0,0.0,films,,10.1063/1.4939299
Ba Fe 2 (As 1-x P x) 2,{'x': [0.46]},"{'Ba': 1, 'Fe': 2, 'As': 1.08, 'P': 0.92}",19.5,0.0,,,10.1038/s41535-018-0144-x
Ba Fe 2 (As 0.54 P 0.46) 2,{},"{'Ba': 1, 'Fe': 2, 'As': 1.08, 'P': 0.92}",19.5,0.0,,,10.1038/s41535-018-0144-x
Tl 0.58 Rb 0.42 Fe 1.72 Se 2,{},"{'Tl': 0.58, 'Rb': 0.42, 'Fe': 1.72, 'Se': 2}",15.0,0.0,,,10.1103/physrevb.85.064513
Eu Bi S 2 F,{},"{'Eu': 1, 'Bi': 1, 'S': 2, 'F': 1}",0.3,0.0,,,10.1103/physrevb.91.214512
La O 0.5 F 0.5 Bi S 2,{},"{'La': 1, 'O': 0.5, 'F': 0.5, 'Bi': 1, 'S': 2}",10.7,7.0,,,10.1103/physrevb.91.214512
La O 0.5 F 0.5 Bi S 2,{},"{'La': 1, 'O': 0.5, 'F': 0.5, 'Bi': 1, 'S': 2}",2.5,0.0,,,10.1103/physrevb.91.214512
Bi 4 O 4 S 3,{},"{'Bi': 4, 'O': 4, 'S': 3}",3.0,2.0,,,10.1103/physrevb.91.214512
La Ru 3 Si 2,{},"{'La': 1, 'Ru': 3, 'Si': 2}",7.8,0.0,,,10.1103/physrevb.86.024513
La Ru 3 Si 2,{},"{'La': 1, 'Ru': 3, 'Si': 2}",1.4,0.0,,,10.1103/physrevb.86.024513
Y Ba 2 Cu 3 O 7-δ,{'δ': []},,93.0,0.0,,,10.1103/physrevlett.82.177
Sr 0.5 Ce 0.5 F Bi S 2,{},"{'Sr': 0.5, 'Ce': 0.5, 'F': 1, 'Bi': 1, 'S': 2}",7.5,0.0,,,10.1038/s41598-017-17637-y
U Co Ge,{},"{'U': 1, 'Co': 1, 'Ge': 1}",0.5,0.0,,,10.1038/s41598-017-17637-y
Al,{},{'Al': 1},1.2,0.0,,,10.1103/physrevb.96.064516
Nb,{},{'Nb': 1},9.3,0.0,,,10.1103/physrevb.97.020504
La Fe As O 1-x F x,{'x': []},,26.0,0.0,,,10.1016/j.physc.2008.07.006
Sm Fe As O 1-x F x,{'x': []},,55.0,0.0,,,10.1016/j.physc.2008.07.006
(Hf Nb) 0.1 (Mo Re Ru) 0.9,{},"{'Hf': 0.1, 'Nb': 0.1, 'Mo': 0.9, 'Re': 0.9, 'Ru': 0.9}",1.0,0.0,,,
K Ca 2 Fe 4 As 4 F 2,{},"{'K': 1, 'Ca': 2, 'Fe': 4, 'As': 4, 'F': 2}",33.5,0.0,,,
La Ru 2 As 2,{},"{'La': 1, 'Ru': 2, 'As': 2}",6.8,0.0,,,
Sr 2 Cu O 4-δ,{'δ': []},,95.0,0.0,,,10.1103/physrevb.86.235111
Ba 1-x K x Fe 2 As 2,{'x': []},,55.0,0.0,,,10.1007/s10948-014-2559-3
Ba 1-x K x Fe 2 As 2,{'x': []},,38.0,0.0,,,10.1007/s10948-014-2559-3