Material,Substitutions,Composition,Tc (K),Pressure (GPa),Shape,Substrate,DOI
La 1-x Sr x F e As O,"{'x': [0.15], 'e': []}",,5.0,0.0,,,10.1143/jpsjs.77sc.15
La 1-x Sr x F e As O,"{'x': [0.1], 'e': []}",,25.0,0.0,,,10.1143/jpsjs.77sc.15
Sm Fe As O 0.9 F 0.1,{},"{'Sm': 1, 'Fe': 1, 'As': 1, 'O': 0.9, 'F': 0.1}",55.0,0.0,,,10.1143/jpsjs.77sc.15
Ba 1-x K x Fe 2 As 2,{'x': []},,38.0,0.0,,,10.1143/jpsjs.77sc.15
La 1-x Sr x Fe As O,{'x': [0.1]},"{'La': 0.9, 'Sr': 0.1, 'Fe': 1, 'As': 1, 'O': 1}",25.0,0.0,,,10.1143/jpsjs.77sc.15
Mg 1-x Al x B 2 Sn S,{'x': []},,13.5,0.0,,,10.1016/j.ssc.2011.10.028
Mg B 2,{},"{'Mg': 1, 'B': 2}",40.0,0.0,,,10.1103/physrevb.65.012512
H Ta S 2,{},"{'H': 1, 'Ta': 1, 'S': 2}",10.0,0.0,,,10.1103/physrevb.100.054503
Nd 4 Ni 3 O 10-δ,{'δ': []},,1.6,0.0,,,10.1093/acprof:oso/9780199216949.003.0019
Li 0.75 B C,{},"{'Li': 0.75, 'B': 1, 'C': 1}",30.0,0.0,,,10.1103/physrevb.66.220502
Mg B 2,{},"{'Mg': 1, 'B': 2}",40.0,0.0,,,10.1103/physrevb.66.220502
Fe Se,{},"{'Fe': 1, 'Se': 1}",50.0,0.0,monolayer films,SrTiO 3 (STO,10.1038/ncomms14988
Fe Se 0.89 S 0.11,{},"{'Fe': 1, 'Se': 0.89, 'S': 0.11}",11.0,0.0,,,
Fe Se 0.97,{},"{'Fe': 1, 'Se': 0.97}",8.5,0.0,,,
Li Fe As,{},"{'Li': 1, 'Fe': 1, 'As': 1}",12.0,0.0,,,10.1103/physrevb.78.212501
Ba 0.6 K 0.4 Fe 2 As 2,{},"{'Ba': 0.6, 'K': 0.4, 'Fe': 2, 'As': 2}",38.0,0.0,,,10.1103/physrevb.78.212501
Ba Fe 2 As 2,{},"{'Ba': 1, 'Fe': 2, 'As': 2}",55.0,0.0,,,10.1103/physrevb.78.212501
Fe As,{},"{'Fe': 1, 'As': 1}",70.0,0.0,,,10.1103/physrevb.78.212501
Y 2 C 3,{},"{'Y': 2, 'C': 3}",18.0,0.0,,,10.1016/j.jpcs.2010.10.072
Y 2 C 3,{},"{'Y': 2, 'C': 3}",15.5,0.0,,,10.1016/j.jpcs.2010.10.072
La Fe As O 1-x F x,{'x': []},,26.0,0.0,,,10.1143/jpsjs.81sb.sb045
Ce Fe As O 1-x F x,{'x': []},,55.0,0.0,,,10.1143/jpsjs.81sb.sb045
Pr Fe As O 1-x F x,{'x': []},,55.0,0.0,,,10.1143/jpsjs.81sb.sb045
Sm Fe As O 1-x F x,{'x': []},,55.0,0.0,,,10.1143/jpsjs.81sb.sb045
Nd Fe As O 1-x F x,{'x': []},,55.0,0.0,,,10.1143/jpsjs.81sb.sb045
Sm F e As O 0.85,{'e': []},,55.0,0.0,polycrystal,,10.1088/2053-1591/3/7/076001
Eu F e As O 0.85 F 0.15,{'e': []},,11.0,0.0,,,10.1088/2053-1591/3/7/076001
Fe Se,{},"{'Fe': 1, 'Se': 1}",14.0,0.0,,,10.1088/2053-1591/3/7/076001
Ba (Fe 0.92 Co 0.08) 2 As 2,{},"{'Ba': 1, 'Fe': 1.84, 'Co': 0.16, 'As': 2}",22.0,0.0,,,
Li,{},{'Li': 1},40.0,0.0,,,10.1103/physrevb.73.220504
Mg C Ni 3,{},"{'Mg': 1, 'C': 1, 'Ni': 3}",5.7,0.0,,,10.1103/physrevb.64.132505
Mg C Ni 3,{},"{'Mg': 1, 'C': 1, 'Ni': 3}",8.0,0.0,,,10.1103/physrevb.64.132505
K x Fe 2-y Se 2,"{'x': [], 'y': []}",,30.0,0.0,,,10.1007/s10948-017-4317-9
Rb x Fe 2-y Se 2,"{'x': [], 'y': []}",,30.0,0.0,,,10.1007/s10948-017-4317-9
Cs x Fe 2-y Se 2,"{'x': [], 'y': []}",,30.0,0.0,,,10.1007/s10948-017-4317-9
Fe Se,{},"{'Fe': 1, 'Se': 1}",8.0,0.0,,,10.1007/s10948-017-4317-9
Fe Se 0.5 Te 0.5,{},"{'Fe': 1, 'Se': 0.5, 'Te': 0.5}",13.5,1.3,,,10.1007/s10948-017-4317-9
Fe Se 0.5 Te 0.5,{},"{'Fe': 1, 'Se': 0.5, 'Te': 0.5}",13.5,2.0,,,10.1007/s10948-017-4317-9
Mg (B 1-x C x) 2,{'x': []},,22.0,0.0,,,10.1016/s0038-1098(03)00426-5
Mg B 2,{},"{'Mg': 1, 'B': 2}",40.0,0.0,,,10.1088/0953-2048/27/12/124004
Nb,{},{'Nb': 1},9.5,0.0,films,,10.1088/0953-2048/27/12/124004
K Fe 2 As 2,{},"{'K': 1, 'Fe': 2, 'As': 2}",4.4,0.0,,,10.1103/physrevb.89.064510
Ba 0.1 K 0.9 Fe 2 As 2,{},"{'Ba': 0.1, 'K': 0.9, 'Fe': 2, 'As': 2}",9.0,0.0,,,10.1103/physrevb.89.064510
Ba Fe 2 As 2,{},"{'Ba': 1, 'Fe': 2, 'As': 2}",38.0,0.0,,,10.1103/physrevb.86.224514
K a Fe 2 As 2,{'a': []},,1.7,0.0,,,10.1103/physrevb.86.224514
(Ba 1-x K x) Fe 2 As 2,{'x': []},,3.8,0.0,,,10.1103/physrevb.86.224514
Nb,{},{'Nb': 1},0.05,0.0,film,,10.1103/physrevb.68.144517
S ample C,"{'p': [], 'e': [], 'm': [], 'a': [], 'l': []}",,1.03,0.0,,,
B,{},{'B': 1},0.25,0.0,,,
Mo Sr 2 Eu Ce Cu 2 O 10,{},"{'Mo': 1, 'Sr': 2, 'Eu': 1, 'Ce': 1, 'Cu': 2, 'O': 10}",5.0,0.0,,,10.1103/physrevb.68.064507
La 2-x Ba x Cu O 4,{'x': [0.095]},"{'La': 1.905, 'Ba': 0.095, 'Cu': 1, 'O': 4}",32.0,0.0,,,10.1103/physrevb.85.134510
Hg Ba 2 Ca 2 Cu 3 O 8+δ,{'δ': []},,135.0,0.0,,,10.1103/physrevb.85.134510
Tb Sr 2 Cu 2.7 Mo 0.3 O 7+δ,{'δ': []},,80.0,0.0,,,
Tb Cu O 2+d,{'d': []},,80.0,0.0,,,
K x Fe 2-y Se 2,"{'x': [], 'y': []}",,32.0,0.0,,,10.1038/srep00212
Rb x Fe 2-y Se 2,"{'x': [], 'y': []}",,32.0,0.0,,,10.1038/srep00212
Mg B 2,{},"{'Mg': 1, 'B': 2}",20.0,0.0,,,
B 4 C,{},"{'B': 4, 'C': 1}",21.9,0.0,,,
Mg B 2,{},"{'Mg': 1, 'B': 2}",21.9,0.0,,,
Bi 2 Se 3,{},"{'Bi': 2, 'Se': 3}",0.5,13.5,,,10.1088/0953-8984/27/24/242201
Cu x Bi 2 Se 3,{'x': []},,3.8,0.0,,,10.1088/0953-8984/27/24/242201
Sn 0.5 In 0.5 Te,{},"{'Sn': 0.5, 'In': 0.5, 'Te': 1}",4.4,0.0,single crystal,,10.1088/0953-8984/27/24/242201
C 6 Ca,{},"{'C': 6, 'Ca': 1}",11.5,7.0,,,10.1103/physrevb.75.085432
Bi 2 Sr 2 Ca Cu 2 O 8,{},"{'Bi': 2, 'Sr': 2, 'Ca': 1, 'Cu': 2, 'O': 8}",100.0,0.0,film,,
Bi 2 Sr 2 Cu O 6,{},"{'Bi': 2, 'Sr': 2, 'Cu': 1, 'O': 6}",80.0,0.0,,,10.1103/physrevlett.119.097001
Tl 2 Ba 2 Cu O 6,{},"{'Tl': 2, 'Ba': 2, 'Cu': 1, 'O': 6}",6.0,0.0,,,10.1103/physrevlett.119.097001
Ce Co In 5,{},"{'Ce': 1, 'Co': 1, 'In': 5}",2.3,0.0,,,10.1103/physrevlett.109.116402
(Li 1-x Fe x) O H Fe Se,{'x': []},,40.0,0.0,,,10.1103/physrevx.9.041049
Fe Se,{},"{'Fe': 1, 'Se': 1}",8.0,0.0,,,10.1103/physrevx.9.041049
Y 0.8 Ca 0.2 Ba 2 Cu 2.94 Zn 0.06 O 6.45,{},"{'Y': 0.8, 'Ca': 0.2, 'Ba': 2, 'Cu': 2.94, 'Zn': 0.06, 'O': 6.45}",31.0,0.0,,,
Bi 2 Se 3,{},"{'Bi': 2, 'Se': 3}",2.5,0.0,,,10.3390/condmat4010002
Bi 2 Se 3,{},"{'Bi': 2, 'Se': 3}",3.0,0.0,,,10.3390/condmat4010002
(Pb Se) 5 (Bi 2 Se 3) 6,{},"{'Pb': 5, 'Se': 23, 'Bi': 12}",2.5,0.0,,,10.3390/condmat4010002
Cu x Bi 2 Se 3,{'x': []},,3.0,0.0,,,10.3390/condmat4010002
U Te 2,{},"{'U': 1, 'Te': 2}",1.6,0.0,,,10.7566/jpsj.88.073701
Bi 4 O 4 S 3,{},"{'Bi': 4, 'O': 4, 'S': 3}",8.3,0.0,,,10.7567/apex.8.023102
Bi 2 O S 2,{},"{'Bi': 2, 'O': 1, 'S': 2}",5.1,0.0,,,10.7567/apex.8.023102
Xe F 2,{},"{'Xe': 1, 'F': 2}",5.1,0.0,,,10.7567/apex.8.023102
Bi 2 (O F) S 2,{},"{'Bi': 2, 'O': 1, 'F': 1, 'S': 2}",5.1,0.0,,,10.7567/apex.8.023102
La (O F) Bi S 2,{},"{'La': 1, 'O': 1, 'F': 1, 'Bi': 1, 'S': 2}",10.0,0.0,,,10.7567/apex.8.023102
Ce Fe As F 0.11 O 0.89,{},"{'Ce': 1, 'Fe': 1, 'As': 1, 'F': 0.11, 'O': 0.89}",55.0,0.0,,,10.1103/physrevb.83.064402
Fe Se 0.88,{},"{'Fe': 1, 'Se': 0.88}",12.0,0.0,,,10.1103/physrevb.83.064402
La Fe As O 0.89 F 0.11,{},"{'La': 1, 'Fe': 1, 'As': 1, 'O': 0.89, 'F': 0.11}",26.0,0.0,,,10.1103/physrevb.83.064402
Mg B 2,{},"{'Mg': 1, 'B': 2}",39.0,0.0,,,10.1063/1.1583132
Tl 15 K b,{'b': []},,15.0,0.0,,,10.1103/physrevlett.99.107002
Tl 2 Ba 2 Cu O 6,{},"{'Tl': 2, 'Ba': 2, 'Cu': 1, 'O': 6}",30.0,0.0,,,10.1103/physrevlett.99.107002
Tl 2 Ba 2 Cu O 6+δ,{'δ': []},,15.0,0.0,,,10.1103/physrevlett.99.107002
Tl 2 Ba 2 Cu O 6,{},"{'Tl': 2, 'Ba': 2, 'Cu': 1, 'O': 6}",15.0,0.0,crystals,,10.1103/physrevlett.99.107002
Bi 2 Sr 2 Ca 2 Cu 3 O 10+δ,{'δ': []},,110.0,0.0,,,10.1016/j.phpro.2015.05.116
B,{},{'B': 1},35.0,0.0,,,10.1016/j.phpro.2015.05.116
Nb N,{},"{'Nb': 1, 'N': 1}",2.27,0.0,film,,10.1103/physrevlett.106.047001
Ba Fe 2-x Ni x As 2,{'x': []},,20.0,0.0,,,10.1103/physrevb.84.144506
Bi 2 Sr 2-x La x Cu O 6+δ,"{'δ': [], 'x': []}",,28.0,0.0,thin film,,10.1103/physrevb.91.224509
Sr Ca Cu 2 O 8+δ,{'δ': []},,91.0,0.0,single crystals,,10.1103/physrevb.91.224509
Pr Fe As O 1-y,{'y': []},,36.0,0.0,,,10.1143/jpsj.77.103715
Mg B 2,{},"{'Mg': 1, 'B': 2}",50.0,0.0,,,10.1143/jpsj.77.103715
La Fe As O 0.9 F 0.1,{},"{'La': 1, 'Fe': 1, 'As': 1, 'O': 0.9, 'F': 0.1}",27.0,0.0,,,10.1143/jpsj.77.103715
K 0.8 Fe 1.78 Se 2,{},"{'K': 0.8, 'Fe': 1.78, 'Se': 2}",48.7,10.5,,,10.1103/physrevb.89.144106
Y Ba 2 Cu 3 O x,{'x': []},,92.0,0.0,,,10.1088/0953-8984/14/25/325
Mg B 2,{},"{'Mg': 1, 'B': 2}",40.0,0.0,,,10.1103/physrevb.66.172501
Mg B 2,{},"{'Mg': 1, 'B': 2}",30.5,0.0,film,,10.1103/physrevb.66.172501
Bi 2 Sr 2 Ca 2 Cu 3 O 10,{},"{'Bi': 2, 'Sr': 2, 'Ca': 2, 'Cu': 3, 'O': 10}",110.0,0.0,,,10.1038/srep08285
Bi 2 Sr 2 Ca Cu 2 O 8,{},"{'Bi': 2, 'Sr': 2, 'Ca': 1, 'Cu': 2, 'O': 8}",80.0,0.0,,,10.1038/srep08285
Bi 2 Sr 2 Ca 2 Cu 3 O 10,{},"{'Bi': 2, 'Sr': 2, 'Ca': 2, 'Cu': 3, 'O': 10}",80.0,0.0,,,10.1038/srep08285
La 2-x Sr x Cu O 4-δ,"{'δ': [], 'x': []}",,4.0,0.0,,,10.1134/1.568136
Nd 1.82 Ce 0.18 Cu O 4-δ,{'δ': []},,6.0,0.0,,,10.1134/1.568136
Tl 2 Ba 2 Cu O 6,{},"{'Tl': 2, 'Ba': 2, 'Cu': 1, 'O': 6}",30.0,0.0,,,10.1103/physrevlett.87.157001
In,{},{'In': 1},3.4,0.0,,,10.1103/physrevb.71.092503
La Fe As O 1-x F x,{'x': []},,50.0,0.0,,,10.1143/jpsj.78.043703
Fe Se,{},"{'Fe': 1, 'Se': 1}",80.0,0.0,films,SrTiO 3,10.1038/ncomms6047
C 60,{},{'C': 60},117.0,0.0,crystals,,10.1103/physrevb.66.172508
Nb N,{},"{'Nb': 1, 'N': 1}",13.5,0.0,,,10.1038/srep40604
Nb,{},{'Nb': 1},6.6,0.0,,,10.1038/srep40604
Bi 2 Sr 2 Ca Cu 2 O 8,{},"{'Bi': 2, 'Sr': 2, 'Ca': 1, 'Cu': 2, 'O': 8}",89.0,0.0,,,
Bi 2 Sr 2 Cu O 6,{},"{'Bi': 2, 'Sr': 2, 'Cu': 1, 'O': 6}",4.0,0.0,,,
La 3 Pd 4 Si 4,{},"{'La': 3, 'Pd': 4, 'Si': 4}",2.2,0.0,,,10.1016/j.jallcom.2012.08.074
La 3 Pd 4 Ge 4,{},"{'La': 3, 'Pd': 4, 'Ge': 4}",2.8,0.0,,,10.1016/j.jallcom.2012.08.074
La 3 Ni 4 Ge 4,{},"{'La': 3, 'Ni': 4, 'Ge': 4}",0.8,0.0,,,10.1016/j.jallcom.2012.08.074
La 3 Ni 4 Si 4,{},"{'La': 3, 'Ni': 4, 'Si': 4}",1.0,0.0,,,10.1016/j.jallcom.2012.08.074
Li Fe As,{},"{'Li': 1, 'Fe': 1, 'As': 1}",17.0,0.0,,,10.1103/physrevb.99.245156
Mg B 2,{},"{'Mg': 1, 'B': 2}",39.0,0.0,,,10.1016/j.ssc.2004.09.035
Au Te 2,{},"{'Au': 1, 'Te': 2}",4.0,0.0,single crystals,,10.1103/physrevb.90.144515
Ir Te 2,{},"{'Ir': 1, 'Te': 2}",3.1,0.0,,,10.1103/physrevb.90.144515
Au Te 2,{},"{'Au': 1, 'Te': 2}",4.0,0.0,,,10.1103/physrevb.90.144515
K x Fe 2-y Se 2,"{'x': [], 'y': []}",,33.0,0.0,,,10.1103/physrevb.91.184503
Rb x Fe 2-y Se 2,"{'x': [], 'y': []}",,33.0,0.0,,,10.1103/physrevb.91.184503
Cs x Fe 2-y Se 2,"{'x': [], 'y': []}",,33.0,0.0,,,10.1103/physrevb.91.184503
Tl x Fe 2-y Se 2,"{'x': [], 'y': []}",,33.0,0.0,,,10.1103/physrevb.91.184503
K Fe 2 As 2,{},"{'K': 1, 'Fe': 2, 'As': 2}",38.0,0.0,,,10.1103/physrevb.91.184503
K 0.8 Fe 2 Se 2,{},"{'K': 0.8, 'Fe': 2, 'Se': 2}",30.0,0.0,,,10.1103/physrevb.91.184503
La Fe As O 1-x F x,{'x': []},,52.0,0.0,,,10.1103/physrevb.91.184503
Ni,{},{'Ni': 1},1.8,0.0,,,10.1103/physrevb.91.184503
H,{},{'H': 1},37.0,0.0,,,10.1088/0953-2048/24/4/045010
H 2,{},{'H': 2},45.0,0.0,,,10.1088/0953-2048/24/4/045010
Cu Al O 2,{},"{'Cu': 1, 'Al': 1, 'O': 2}",50.0,0.0,,,10.1016/j.ssc.2012.08.017
Ag Al O 2,{},"{'Ag': 1, 'Al': 1, 'O': 2}",50.0,0.0,,,10.1016/j.ssc.2012.08.017
Sc In Au 2,{},"{'Sc': 1, 'In': 1, 'Au': 2}",3.0,0.0,,,
Sc In Au 2,{},"{'Sc': 1, 'In': 1, 'Au': 2}",2.0,0.0,,,
In,{},{'In': 1},3.0,0.0,,,
Sc In 3,{},"{'Sc': 1, 'In': 3}",1.0,0.0,,,
Sc In Au 2,{},"{'Sc': 1, 'In': 1, 'Au': 2}",1.8,0.0,,,
Ce Ir Si 3,{},"{'Ce': 1, 'Ir': 1, 'Si': 3}",1.6,2.5,,,10.1088/0034-4885/79/9/094503
Ce Cu 2 Si 2,{},"{'Ce': 1, 'Cu': 2, 'Si': 2}",0.6,0.0,,,10.1088/0034-4885/79/9/094503
Pu Co Ga 5,{},"{'Pu': 1, 'Co': 1, 'Ga': 5}",18.5,0.0,,,10.1088/0034-4885/79/9/094503
Ce Ir In 5,{},"{'Ce': 1, 'Ir': 1, 'In': 5}",1.0,3.0,,,10.1088/0034-4885/79/9/094503
Ce Pt 3 Si,{},"{'Ce': 1, 'Pt': 3, 'Si': 1}",0.75,0.0,,,10.1088/0034-4885/79/9/094503
Mg B 2,{},"{'Mg': 1, 'B': 2}",27.0,0.0,,,10.1088/0953-8984/15/6/315
Ca C 2,{},"{'Ca': 1, 'C': 2}",7.9,43.0,,,10.1073/pnas.1307384110
Ca C 6,{},"{'Ca': 1, 'C': 6}",11.5,0.0,,,10.1073/pnas.1307384110
La 2-x Sr x Cu O 4,{'x': []},,90.0,0.0,,,10.1103/physrevb.71.220507
U Pt 3,{},"{'U': 1, 'Pt': 3}",0.5,0.0,,,
Y Ba 2 Cu 3 O 6.63,{},"{'Y': 1, 'Ba': 2, 'Cu': 3, 'O': 6.63}",62.0,0.0,,,10.1143/jpsj.77.124706
Pr Fe As O 1-y,{'y': []},,16.0,0.0,,,
Pr Fe As O 1-y,{'y': []},,33.0,0.0,,,
Nd Fe As O 0.9 F 0.1,{},"{'Nd': 1, 'Fe': 1, 'As': 1, 'O': 0.9, 'F': 0.1}",53.0,0.0,,,
Pb,{},{'Pb': 1},7.25,0.0,,,10.1103/physrevb.84.104525
Y Ba 2 Cu 3 O 6.95,{},"{'Y': 1, 'Ba': 2, 'Cu': 3, 'O': 6.95}",93.0,0.0,,,10.1103/physrevb.78.132503
Y Ba Cu 3 O 6.6,{},"{'Y': 1, 'Ba': 1, 'Cu': 3, 'O': 6.6}",60.0,0.0,,,10.1103/physrevb.78.132503
Y Ba 2 Cu 3 O 6.95,{},"{'Y': 1, 'Ba': 2, 'Cu': 3, 'O': 6.95}",60.0,0.0,,,10.1103/physrevb.78.132503
Mg B 2,{},"{'Mg': 1, 'B': 2}",33.0,0.0,,,10.1063/1.1472470
Mg B 2,{},"{'Mg': 1, 'B': 2}",39.0,0.0,,,10.1063/1.1472470
Mg B 2,{},"{'Mg': 1, 'B': 2}",40.0,0.0,,,10.1007/1-4020-2396-0_24
Mg B 2,{},"{'Mg': 1, 'B': 2}",40.0,0.0,,,10.1088/1742-6596/43/1/119
Ba 0.6 K 0.4 Bi O 3,{},"{'Ba': 0.6, 'K': 0.4, 'Bi': 1, 'O': 3}",31.0,0.0,,,10.1088/1742-6596/43/1/119
La 2 Cu O 4,{},"{'La': 2, 'Cu': 1, 'O': 4}",45.0,0.0,,,10.1209/0295-5075/86/67007
Ho Mo 6 S 8,{},"{'Ho': 1, 'Mo': 6, 'S': 8}",1.2,0.0,,,10.1103/physrevb.100.224503
Ho,{},{'Ho': 1},8.0,0.0,,,10.1103/physrevb.100.224503
Er Rh 4 B 4,{},"{'Er': 1, 'Rh': 4, 'B': 4}",8.5,0.0,,,10.1103/physrevb.100.224503
Ca 1-x La x Fe (As 1-y Sb y) 2,"{'x': [], 'y': []}",,47.0,0.0,,,10.7566/jpsj.86.113705
Fe Se,{},"{'Fe': 1, 'Se': 1}",38.0,6.0,,,10.7566/jpsj.86.113705
Bi 2 Se 3,{},"{'Bi': 2, 'Se': 3}",4.5,0.0,,,
Ca Fe 2 As 2,{},"{'Ca': 1, 'Fe': 2, 'As': 2}",47.0,0.0,,,10.1103/physrevb.89.220505
Nb x Bi 2 Se 3,{'x': []},,3.5,0.0,,,10.1103/physrevb.97.024511
Cu x Bi 2 Se 3,{'x': []},,3.0,0.0,,,10.1103/physrevb.97.024511
Sr x Bi 2 Se 3,{'x': []},,3.4,0.0,,,10.1103/physrevb.97.024511
Sn 0.55 In 0.45 Te,{},"{'Sn': 0.55, 'In': 0.45, 'Te': 1}",1.8,0.0,,,10.1103/physrevb.97.024511
Sn 1-x In x Te,{'x': [0.45]},"{'Sn': 0.55, 'In': 0.45, 'Te': 1}",4.5,0.0,,,10.1103/physrevb.97.024511
Mg B 2,{},"{'Mg': 1, 'B': 2}",39.4,0.0,,,10.1016/s0921-4534(02)02345-6
Mg B 2,{},"{'Mg': 1, 'B': 2}",39.0,0.0,,,10.1016/s0921-4534(02)02345-6
Gd Fe As O,{},"{'Gd': 1, 'Fe': 1, 'As': 1, 'O': 1}",56.0,0.0,,,10.1103/physrevb.85.220505
Na,{},{'Na': 1},1.0,0.0,,,10.1103/physrevb.64.174503
Na 0.05 W O 3,{},"{'Na': 0.05, 'W': 1, 'O': 3}",90.0,0.0,,,10.1103/physrevb.64.174503
U Pt 3,{},"{'U': 1, 'Pt': 3}",0.5,0.0,,,10.1103/physrevlett.99.187004
Mg B 2,{},"{'Mg': 1, 'B': 2}",39.0,0.0,,,10.1140/epjb/e2003-00180-9
Mg B 2,{},"{'Mg': 1, 'B': 2}",39.0,0.0,thin film,,10.1126/science.1060822
Mg B 2,{},"{'Mg': 1, 'B': 2}",39.0,0.0,,,10.1126/science.1060822
Ba (Fe 0.925 Co 0.075) 2 As 2,{},"{'Ba': 1, 'Fe': 1.85, 'Co': 0.15, 'As': 2}",23.5,0.0,single crystal,,10.1016/j.physb.2012.01.021
Ba (Fe 0.9 Co 0.1) 2 As 2,{},"{'Ba': 1, 'Fe': 1.8, 'Co': 0.2, 'As': 2}",19.5,0.0,single crystalline,,10.1016/j.physb.2012.01.021
Bi (La),{},"{'Bi': 1, 'La': 1}",32.0,0.0,,,10.1103/physrevb.70.214525
Ce Co In 5,{},"{'Ce': 1, 'Co': 1, 'In': 5}",0.45,0.0,,,10.1103/physrevx.1.011010
Ce Co In 5,{},"{'Ce': 1, 'Co': 1, 'In': 5}",2.3,0.0,,,10.1103/physrevx.1.011010
Ce Ir In 5,{},"{'Ce': 1, 'Ir': 1, 'In': 5}",0.4,0.0,,,10.1103/physrevx.1.011010
Ce 2 Rh In 8,{},"{'Ce': 2, 'Rh': 1, 'In': 8}",2.0,0.0,,,10.1103/physrevx.1.011010
Ce 2 Co In 8,{},"{'Ce': 2, 'Co': 1, 'In': 8}",0.4,0.0,,,10.1103/physrevx.1.011010
Ce 2 Pd In 8,{},"{'Ce': 2, 'Pd': 1, 'In': 8}",0.68,0.0,,,10.1103/physrevx.1.011010
Fe Se,{},"{'Fe': 1, 'Se': 1}",46.0,0.0,films,,
Fe Se,{},"{'Fe': 1, 'Se': 1}",30.0,0.0,,,
Eu 0.5 K 0.5 Fe 2 As 2,{},"{'Eu': 0.5, 'K': 0.5, 'Fe': 2, 'As': 2}",33.0,0.0,,,10.1103/physrevb.85.144513
Eu 0.5 K 0.5 (Fe 0.92 Ni 0.08) 2 As 2,{},"{'Eu': 0.5, 'K': 0.5, 'Fe': 1.84, 'Ni': 0.16, 'As': 2}",8.5,0.0,,,10.1103/physrevb.85.144513
Eu Fe 1.9 Co 0.1 As 2,{},"{'Eu': 1, 'Fe': 1.9, 'Co': 0.1, 'As': 2}",1.8,0.0,,,10.1103/physrevb.85.144513
(Ga Mn) As,{},"{'Ga': 1, 'Mn': 1, 'As': 1}",110.0,0.0,,,10.1103/physrevlett.89.107203
Pb In,{},"{'Pb': 1, 'In': 1}",6.7,0.0,,,10.7567/apex.9.023102
Y 2 C 3,{},"{'Y': 2, 'C': 3}",18.0,0.0,,,10.1134/s1063776107090221
Y C 2,{},"{'Y': 1, 'C': 2}",4.0,0.0,,,10.1134/s1063776107090221
Mg B 2,{},"{'Mg': 1, 'B': 2}",40.0,0.0,,,10.1134/s1063776107090221
Nb C,{},"{'Nb': 1, 'C': 1}",9.2,0.0,,,10.1134/s1063776107090221
Sr 2 Ru O 4,{},"{'Sr': 2, 'Ru': 1, 'O': 4}",1.5,0.0,,,10.1103/physrevb.91.144513
Ba 0.6 K 0.4 Fe 2 As 2,{},"{'Ba': 0.6, 'K': 0.4, 'Fe': 2, 'As': 2}",37.0,0.0,,,10.1088/0953-2048/27/12/124002
K Fe 2 As 2,{},"{'K': 1, 'Fe': 2, 'As': 2}",3.5,0.0,single crystalline,,10.1103/physrevb.85.134533
Ba 0.68 K 0.32 Fe 2 As 2,{},"{'Ba': 0.68, 'K': 0.32, 'Fe': 2, 'As': 2}",38.5,0.0,,,10.1103/physrevb.85.134533
La Fe As O,{},"{'La': 1, 'Fe': 1, 'As': 1, 'O': 1}",26.0,0.0,,,10.1103/physrevb.85.134533
Ba 0.6 K 0.4 Fe 2 As 2,{},"{'Ba': 0.6, 'K': 0.4, 'Fe': 2, 'As': 2}",38.5,0.0,,,10.1103/physrevb.85.134533
Rb Fe 2 As 2,{},"{'Rb': 1, 'Fe': 2, 'As': 2}",2.52,0.0,,,10.1103/physrevb.85.134533
K Fe 2 As 2,{},"{'K': 1, 'Fe': 2, 'As': 2}",2.8,0.0,sin- gle crystals,,10.1103/physrevb.85.134533
Mg B 2,{},"{'Mg': 1, 'B': 2}",22.0,0.0,,,10.1063/1.1814415
Cu x Bi 2 Se 3,{'x': []},,3.8,0.0,,,10.1103/physrevb.93.220505
La 1.85 Sr 0.15 Cu O 4,{},"{'La': 1.85, 'Sr': 0.15, 'Cu': 1, 'O': 4}",13.0,100.0,,,
La 1.85 Sr 0.15 Cu O 4,{},"{'La': 1.85, 'Sr': 0.15, 'Cu': 1, 'O': 4}",26.0,0.0,,,
Sr 0.9 La 0.1 Cu O 2,{},"{'Sr': 0.9, 'La': 0.1, 'Cu': 1, 'O': 2}",43.0,0.0,,,
K Os 2 O 6,{},"{'K': 1, 'Os': 2, 'O': 6}",9.6,0.0,,,10.1143/jpsj.76.104603
K Os 2 O 6,{},"{'K': 1, 'Os': 2, 'O': 6}",9.6,0.0,single crystals,,10.1143/jpsj.76.104603
La Os 4 Sb 12,{},"{'La': 1, 'Os': 4, 'Sb': 12}",0.74,0.0,,,10.1103/physrevlett.93.157003
Pr Os 4 Sb 12,{},"{'Pr': 1, 'Os': 4, 'Sb': 12}",1.85,0.0,,,10.1103/physrevlett.93.157003
Zr Ru P,{},"{'Zr': 1, 'Ru': 1, 'P': 1}",12.7,0.0,,,10.1038/s41524-019-0260-6
Y Co Ge,{},"{'Y': 1, 'Co': 1, 'Ge': 1}",0.3,0.0,,,10.1143/jpsj.80.064711
Fe Se,{},"{'Fe': 1, 'Se': 1}",65.0,0.0,,,10.1103/physrevb.88.100504
Ru Sr 2 (Gd 0.7 Ce 0.3) 2 Cu 2 O 10-δ,{'δ': []},,60.0,0.0,,,10.1063/1.1456444
Y Ni 2 B 2 C,{},"{'Y': 1, 'Ni': 2, 'B': 2, 'C': 1}",15.5,0.0,,,10.1088/0953-2048/27/6/063001
Al,{},{'Al': 1},1.1,0.0,,,10.1088/0953-2048/27/6/063001
B,{},{'B': 1},80.0,0.0,,,10.1103/physrevmaterials.2.033803
Mg 1-x Al x B 2,{'x': []},,20.0,0.0,,,10.1016/j.physc.2015.02.024
Mg B 2,{},"{'Mg': 1, 'B': 2}",40.0,0.0,,,10.1016/j.physc.2015.02.024
Cd 2 Re 2 O 7,{},"{'Cd': 2, 'Re': 2, 'O': 7}",1.0,0.0,,,10.1103/physrevb.71.024524
Rb Os 2 O 6,{},"{'Rb': 1, 'Os': 2, 'O': 6}",6.4,0.0,,,10.1103/physrevb.71.024524
La 1.8 Sr 0.2 Cu O 4,{},"{'La': 1.8, 'Sr': 0.2, 'Cu': 1, 'O': 4}",5.0,0.0,,,10.1103/physrevb.91.060506
Ta S 2,{},"{'Ta': 1, 'S': 2}",9.1,0.0,,,
Bi 2 Sr 2 Ca Cu 2 O 8+δ,{'δ': []},,84.0,0.0,films,,10.1209/0295-5075/78/47003
Bi 2 Sr 2 Ca Cu 2 O 8+δ,{'δ': []},,84.0,0.0,,,10.1209/0295-5075/78/47003
La 2 Cu O 4+δ,{'δ': []},,45.0,0.0,,,
Na V 2 O 5,{},"{'Na': 1, 'V': 2, 'O': 5}",33.0,0.0,,,10.1103/physrevb.63.144420
Nb N,{},"{'Nb': 1, 'N': 1}",2.68,0.0,,,10.1103/physrevb.69.064504
Y Ba 2 Cu 3 O 7-δ,{'δ': []},,89.0,0.0,thin film C -,,10.1088/0953-2048/16/8/315
Sm Fe As O 0.9 F 0.1,{},"{'Sm': 1, 'Fe': 1, 'As': 1, 'O': 0.9, 'F': 0.1}",55.0,0.0,,,10.1088/0953-2048/21/10/105018
La Fe As O 1-x F x,{'x': []},,26.0,0.0,,,10.1088/0953-2048/21/10/105018
Fe Se 1-x Te x,{'x': [0.61]},"{'Fe': 1, 'Se': 0.39, 'Te': 0.61}",14.0,0.0,single crystal,,10.1103/physrevb.101.115112
La 2-x Ba x Cu O 4,{'x': []},,35.0,0.0,,,
Sr 2 Ru O 4 Ru,{},"{'Sr': 2, 'Ru': 2, 'O': 4}",1.5,0.0,,,10.1143/jpsj.78.113703
Sr 2 Ru O 4 Ru,{},"{'Sr': 2, 'Ru': 2, 'O': 4}",0.4,0.0,,,10.1143/jpsj.78.113703
Ta 4 Pd 3 Te 16,{},"{'Ta': 4, 'Pd': 3, 'Te': 16}",4.3,0.0,,,10.1103/physrevb.92.180505
La 2 Cu O 4,{},"{'La': 2, 'Cu': 1, 'O': 4}",40.0,0.0,,,10.1103/physrevb.99.104511
Hg Ba 2 Cu O 4,{},"{'Hg': 1, 'Ba': 2, 'Cu': 1, 'O': 4}",90.0,0.0,,,10.1103/physrevb.99.104511
Sc Ir P,{},"{'Sc': 1, 'Ir': 1, 'P': 1}",3.4,0.0,,,10.7566/jpsj.85.013704
Li 2 Pt 3 B,{},"{'Li': 2, 'Pt': 3, 'B': 1}",3.0,0.0,,,10.7566/jpsj.85.013704
Ca C 6,{},"{'Ca': 1, 'C': 6}",11.5,0.0,,,10.7566/jpsj.85.013704
Sc Ir P,{},"{'Sc': 1, 'Ir': 1, 'P': 1}",2.5,0.0,crystals,,10.7566/jpsj.85.013704
Sc Ir P,{},"{'Sc': 1, 'Ir': 1, 'P': 1}",2.5,0.0,,,10.7566/jpsj.85.013704
Li 2 Pd 3 B,{},"{'Li': 2, 'Pd': 3, 'B': 1}",8.0,0.0,,,10.7566/jpsj.85.013704
Ca,{},{'Ca': 1},20.0,0.0,Elemental,,10.7566/jpsj.85.013704
Yb C 6,{},"{'Yb': 1, 'C': 6}",6.5,0.0,,,10.7566/jpsj.85.013704
Fe S Cs,{},"{'Fe': 1, 'S': 1, 'Cs': 1}",43.0,0.0,,,10.1103/physrevb.90.165122
Ga As,{},"{'Ga': 1, 'As': 1}",110.0,0.0,,,10.1103/physrevb.64.184423