Material,Substitutions,Composition,Tc (K),Pressure (GPa),Shape,Substrate,DOI
H 3 S 0.925 P 0.075,{},"{'H': 3, 'S': 0.925, 'P': 0.075}",280.0,250.0,,,
H 3 S,{},"{'H': 3, 'S': 1}",194.0,170.0,,,
H 3 S 0.96 Si 0.04,{},"{'H': 3, 'S': 0.96, 'Si': 0.04}",274.0,170.0,,,
H 3 S 0.925 P 0.075,{},"{'H': 3, 'S': 0.925, 'P': 0.075}",280.0,170.0,,,
H 3 S 0.9 O 0.1,{},"{'H': 3, 'S': 0.9, 'O': 0.1}",198.0,170.0,,,
H 3 S 0.9 P 0.1,{},"{'H': 3, 'S': 0.9, 'P': 0.1}",250.0,170.0,,,
Y Ba 2 Cu 3 O 6.993,{},"{'Y': 1, 'Ba': 2, 'Cu': 3, 'O': 6.993}",89.0,0.0,,,10.1038/ncomms3477
Pr Ru 4 Sb 12,{},"{'Pr': 1, 'Ru': 4, 'Sb': 12}",1.25,0.0,,,10.1088/0953-8984/17/28/l01
Sm 1.85 Ce 0.15 Cu O 4-δ,{'δ': []},,16.5,0.0,,,
La O 1-x F x Fe As,{'x': [0.05]},"{'La': 1, 'O': 0.95, 'F': 0.05, 'Fe': 1, 'As': 1}",26.0,0.0,,,
La O 0.9 F 0.1-δ Fe As,{'δ': []},,28.0,0.0,,,
La O 0.89 F 0.11 Fe As,{},"{'La': 1, 'O': 0.89, 'F': 0.11, 'Fe': 1, 'As': 1}",28.0,0.0,,,
Bi 2 Se 3,{},"{'Bi': 2, 'Se': 3}",3.8,0.0,,,10.1063/1.4934590
Bi 2 Se 3,{},"{'Bi': 2, 'Se': 3}",2.5,0.0,,,10.1063/1.4934590
C 60,{},{'C': 60},115.0,0.0,,,10.1103/physrevb.75.064511
Nd Fe As O x F y,"{'x': [], 'y': []}",,50.0,0.0,,,10.1016/j.physc.2009.03.012
Sm Fe As O x F y,"{'x': [], 'y': []}",,50.0,0.0,,,10.1016/j.physc.2009.03.012
Pr Fe As O x F y,"{'x': [], 'y': []}",,50.0,0.0,,,10.1016/j.physc.2009.03.012
K 0.8 Fe 2 Se 2,{},"{'K': 0.8, 'Fe': 2, 'Se': 2}",33.0,0.0,crystal,,10.1063/1.3549702
K x Fe 2 Se 2,{'x': []},,33.0,0.0,,,10.1063/1.3549702
Tl,{},{'Tl': 1},78.7,0.0,,,10.1103/physrevlett.82.2366
Bi 2 Sr 2 Cu O 6+δ,{'δ': []},,10.0,0.0,,,10.1143/jpsj.71.1535
Bi 2 Sr 2 Ca Cu 2 O 8,{},"{'Bi': 2, 'Sr': 2, 'Ca': 1, 'Cu': 2, 'O': 8}",83.0,0.0,,,10.1143/jpsj.71.1535
Ca Pt As,{},"{'Ca': 1, 'Pt': 1, 'As': 1}",1.5,0.0,,,10.1103/physrevb.97.020502
Y Ba 2 Cu 4 O 8,{},"{'Y': 1, 'Ba': 2, 'Cu': 4, 'O': 8}",90.0,0.0,,,10.1103/physrevb.60.9801
Y Ba 2 Cu 4 O 7,{},"{'Y': 1, 'Ba': 2, 'Cu': 4, 'O': 7}",80.0,0.0,,,10.1103/physrevb.60.9801
Y Ba 2 Cu 3 O 7-δ,{'δ': []},,90.0,0.0,,,10.1103/physrevb.60.9801
Y Ba 2 Cu 3 O 7,{},"{'Y': 1, 'Ba': 2, 'Cu': 3, 'O': 7}",90.0,0.0,,,10.1103/physrevb.60.9801
Mg B 2,{},"{'Mg': 1, 'B': 2}",34.0,0.0,,,10.1109/tasc.2009.2019538
La 2-x Sr x Cu O 4,{'x': [0.05]},"{'La': 1.95, 'Sr': 0.05, 'Cu': 1, 'O': 4}",2.0,0.0,,,10.1103/physrevlett.95.247002
Bi,{},{'Bi': 1},50.0,0.0,,,10.1103/physrevlett.95.247002
Bi,{},{'Bi': 1},50.0,0.0,crystal,,10.1103/physrevlett.95.247002
La Fe As O 1-x H x,{'x': []},,47.0,3.0,,,10.1103/physrevb.89.094510
K y Fe 2 Se 2,{'y': []},,31.0,0.0,,,10.1103/physrevb.91.220509
Cs y Fe 2 Se 2,{'y': []},,31.0,0.0,,,10.1103/physrevb.91.220509
(Ba 0.6 K 0.4) Fe 2 As 2,{},"{'Ba': 0.6, 'K': 0.4, 'Fe': 2, 'As': 2}",35.0,0.0,,,
La (Ba Ca) 2 Cu 3 O x,{'x': []},,70.0,0.0,,,10.1016/j.solidstatesciences.2018.12.003
B 3,{},{'B': 3},70.0,0.0,,,10.1016/j.solidstatesciences.2018.12.003
Sr 0.7 Ca 0.3 Cu O 2,{},"{'Sr': 0.7, 'Ca': 0.3, 'Cu': 1, 'O': 2}",110.0,0.0,,,10.1016/j.solidstatesciences.2018.12.003
La Ba Ca Cu 3 O x,{'x': []},,70.0,0.0,,,10.1016/j.solidstatesciences.2018.12.003
Bi 2 Sr 2 Ca Cu 2 O 8+δ,{'δ': []},,83.0,0.0,,,10.1103/physrevb.63.144507
Bi 2 Sr 2 Ca Cu 2 O 8+δ,{'δ': []},,87.0,0.0,,,10.1103/physrevb.63.144507
Ga 1-x Mn x As,{'x': [0.053]},"{'Ga': 0.947, 'Mn': 0.053, 'As': 1}",110.0,0.0,,,10.1103/physrevb.65.115308
Ca,{},{'Ca': 1},11.5,0.0,,,
Pb Ta Se 2,{},"{'Pb': 1, 'Ta': 1, 'Se': 2}",3.8,0.0,,,
Ca K Fe 4 As 4,{},"{'Ca': 1, 'K': 1, 'Fe': 4, 'As': 4}",35.0,0.0,,,10.1103/physrevb.94.064501
K Os 2 O 6,{},"{'K': 1, 'Os': 2, 'O': 6}",9.6,0.0,,,10.1103/physrevb.75.172501
Mg B 2,{},"{'Mg': 1, 'B': 2}",39.0,0.0,,,10.1088/1361-648x/aa8aa2
La 0.05 Fe As O y,{'y': []},,50.0,0.0,,,10.1103/physrevb.89.064511
La Fe As 0.6 P 0.4 O 0.9 F 0.1,{},"{'La': 1, 'Fe': 1, 'As': 0.6, 'P': 0.4, 'O': 0.9, 'F': 0.1}",27.0,0.0,,,10.1103/physrevb.89.064511
La Fe As 0.4 P 0.6 O 0.95 F 0.05,{},"{'La': 1, 'Fe': 1, 'As': 0.4, 'P': 0.6, 'O': 0.95, 'F': 0.05}",24.0,0.0,,,10.1103/physrevb.89.064511
Y 0.2 La 0.8 Fe As O y,{'y': []},,34.0,0.0,,,10.1103/physrevb.89.064511
Y 0.2 La 0.8 Fe As O,{},"{'Y': 0.2, 'La': 0.8, 'Fe': 1, 'As': 1, 'O': 1}",50.0,0.0,,,10.1103/physrevb.89.064511
La Fe As O y,{'y': []},,28.0,0.0,,,10.1103/physrevb.89.064511
La Fe As O 1-y F y,{'y': [0.1]},"{'La': 1, 'Fe': 1, 'As': 1, 'O': 0.9, 'F': 0.1}",26.0,0.0,,,10.1103/physrevb.89.064511
Sr 4 (Mg 0.3 Ti 0.7) 2 O 6 Fe 2 As 2,{},"{'Sr': 4, 'Mg': 0.6, 'Ti': 1.4, 'O': 6, 'Fe': 2, 'As': 2}",34.0,0.0,,,10.1103/physrevb.89.064511
Ca 4 (Mg Ti) 3 Fe 2 As 2 O 8-y,{'y': []},,47.0,0.0,,,10.1103/physrevb.89.064511
La Fe As O δ,{'δ': []},,28.0,0.0,,,10.1103/physrevb.89.064511
La Fe As 0.6 P 0.4 O 0,{},"{'La': 1, 'Fe': 1, 'As': 0.6, 'P': 0.4, 'O': 0}",19.0,0.0,,,10.1103/physrevb.89.064511
La Fe P O,{},"{'La': 1, 'Fe': 1, 'P': 1, 'O': 1}",4.0,0.0,,,10.1103/physrevb.89.064511
Tl x Fe 2-y Se 2-z S z,"{'z': [], 'x': [], 'y': []}",,29.0,0.0,,,10.1103/physrevb.93.054516
Tl 0.4 K 0.4 Fe 1.7 Se 2,{},"{'Tl': 0.4, 'K': 0.4, 'Fe': 1.7, 'Se': 2}",29.0,0.0,,,10.1103/physrevb.93.054516
Se 2,{},{'Se': 2},29.0,0.0,,,10.1103/physrevb.93.054516
Sr 2 Ru O 4,{},"{'Sr': 2, 'Ru': 1, 'O': 4}",1.5,0.0,,,10.1103/physrevb.65.220502
Na no- Mg B 2,"{'n': [], 'o': []}",,39.0,0.0,,,10.1016/s0038-1098(04)00377-1
Mg B 2,{},"{'Mg': 1, 'B': 2}",39.0,0.0,,,10.1016/s0038-1098(04)00377-1
Y Ba 2 Cu 3 O x,{'x': []},,50.0,0.0,single crystals,,
Y Ba 2 Cu 3 O 7,{},"{'Y': 1, 'Ba': 2, 'Cu': 3, 'O': 7}",45.0,0.0,crystal,,
Y Ba 2 Cu 3 O 7,{},"{'Y': 1, 'Ba': 2, 'Cu': 3, 'O': 7}",90.0,0.0,crystal,,
Ba 1-x K x Bi O 3,{'x': [0.35]},"{'Ba': 0.65, 'K': 0.35, 'Bi': 1, 'O': 3}",32.0,0.0,,,10.1103/physrevlett.121.117002
Ba 0.51 K 0.49 Bi O 3,{},"{'Ba': 0.51, 'K': 0.49, 'Bi': 1, 'O': 3}",22.0,0.0,single crystals,,10.1103/physrevlett.121.117002
Mg B 2,{},"{'Mg': 1, 'B': 2}",40.0,0.0,,,10.1103/physrevlett.92.217003
Mg B 2,{},"{'Mg': 1, 'B': 2}",39.0,0.0,,,10.1016/j.ssc.2012.01.016
Mg,{},{'Mg': 1},48.0,0.0,,,10.1016/j.ssc.2012.01.016
Ce Co In 5,{},"{'Ce': 1, 'Co': 1, 'In': 5}",1.0,0.0,,,10.1103/physrevlett.94.047001
Zr,{},{'Zr': 1},15.0,0.0,,,10.7566/jpsj.82.034704
Mg B 2,{},"{'Mg': 1, 'B': 2}",40.0,0.0,,,10.1103/physrevb.93.144504
Bi 2 Sr 2 Ca Cu 2 O 8,{},"{'Bi': 2, 'Sr': 2, 'Ca': 1, 'Cu': 2, 'O': 8}",120.0,0.0,,,10.1103/physrevb.81.214520
Bi 2 Sr 2 Ca Cu 2 O y,{'y': []},,86.0,0.0,,,10.1103/physrevb.81.214520
Pr Fe As O,{},"{'Pr': 1, 'Fe': 1, 'As': 1, 'O': 1}",50.0,0.0,,,10.7566/jpsj.82.044712
Sm Fe As O,{},"{'Sm': 1, 'Fe': 1, 'As': 1, 'O': 1}",50.0,0.0,,,10.7566/jpsj.82.044712
Nd Fe As O,{},"{'Nd': 1, 'Fe': 1, 'As': 1, 'O': 1}",50.0,0.0,,,10.7566/jpsj.82.044712
Ce O Bi S 2,{},"{'Ce': 1, 'O': 1, 'Bi': 1, 'S': 2}",1.3,0.0,,,
Ru Sr 2 Gd Cu 2 O 8,{},"{'Ru': 1, 'Sr': 2, 'Gd': 1, 'Cu': 2, 'O': 8}",46.0,0.0,,,10.1103/physrevb.62.14541
Li Fe As,{},"{'Li': 1, 'Fe': 1, 'As': 1}",18.0,0.0,,,10.1103/physrevb.91.174509
Mg B 2,{},"{'Mg': 1, 'B': 2}",39.0,0.0,,,10.1103/physrevlett.87.167003
La 3 Rh 4 Sn 13,{},"{'La': 3, 'Rh': 4, 'Sn': 13}",2.98,0.0,,,10.1016/j.jallcom.2014.07.051
La 3 Rh 4 Sn 13,{},"{'La': 3, 'Rh': 4, 'Sn': 13}",2.13,0.0,,,10.1016/j.jallcom.2014.07.051
Pr Os 4 Sb 12,{},"{'Pr': 1, 'Os': 4, 'Sb': 12}",1.85,0.0,,,10.1016/j.jallcom.2014.07.051
La 3 Co 4 Sn 13,{},"{'La': 3, 'Co': 4, 'Sn': 13}",2.85,0.0,,,10.1016/j.jallcom.2014.07.051
La 3 Rh 4 Sn 13,{},"{'La': 3, 'Rh': 4, 'Sn': 13}",2.1,0.0,,,10.1016/j.jallcom.2014.07.051
K x Fe 2-y Se 2,"{'x': [], 'y': []}",,30.0,0.0,,,10.1103/physrevlett.106.107001
Tl x Fe 2-y Se 2,"{'x': [], 'y': []}",,30.0,0.0,,,10.1103/physrevlett.106.107001
Cs x Fe 2-y Se 2,"{'x': [], 'y': []}",,30.0,0.0,,,10.1103/physrevlett.106.107001
Rb x Fe 2-y Se 2,"{'x': [], 'y': []}",,30.0,0.0,,,10.1103/physrevlett.106.107001
(Tl 0.58 Rb 0.42) Fe 1.72 Se 2,{},"{'Tl': 0.58, 'Rb': 0.42, 'Fe': 1.72, 'Se': 2}",32.0,0.0,,,10.1103/physrevlett.106.107001
Fe Se,{},"{'Fe': 1, 'Se': 1}",8.0,0.0,,,10.1088/0953-2048/29/3/035007
La Fe As O 1-x F x,{'x': []},,26.0,0.0,,,10.1088/0953-2048/29/3/035007
La O 1-x F x Fe As,{'x': []},,43.0,4.0,,,10.1088/0953-2048/29/3/035007
Cu x Bi 2 Se 3,{'x': [0.15]},"{'Cu': 0.15, 'Bi': 2, 'Se': 3}",3.8,0.0,,,10.1103/physrevlett.108.057001
Ba (Fe 1-x Co x) 2 As 2,{'x': []},,23.0,0.0,,,10.1143/jpsj.78.023702
La Fe As O 1-x F x,{'x': []},,26.0,0.0,,,10.1143/jpsj.78.023702
Ba Fe 2 As 2,{},"{'Ba': 1, 'Fe': 2, 'As': 2}",23.0,0.0,,,10.1143/jpsj.78.023702
Cd Cr 1.7 In 0.3 S 4,{},"{'Cd': 1, 'Cr': 1.7, 'In': 0.3, 'S': 4}",16.7,0.0,,,10.1007/s100510170257
Ce Ru 2,{},"{'Ce': 1, 'Ru': 2}",6.2,0.0,,,10.7566/jpsj.84.115001
Ba 0.6 K 0.4 Fe 2 As 2,{},"{'Ba': 0.6, 'K': 0.4, 'Fe': 2, 'As': 2}",38.0,0.0,,,10.1038/natrevmats.2016.17
Sm Fe As O,{},"{'Sm': 1, 'Fe': 1, 'As': 1, 'O': 1}",56.0,0.0,,,10.1038/natrevmats.2016.17
Fe Se,{},"{'Fe': 1, 'Se': 1}",9.4,0.0,,,10.1126/sciadv.aao2682
Fe Se,{},"{'Fe': 1, 'Se': 1}",40.0,0.0,,,10.1126/sciadv.aao2682
Fe Se,{},"{'Fe': 1, 'Se': 1}",77.0,0.0,film,SrTiO 3,10.1126/sciadv.aao2682
Sm Fe As O 1-x F x,{'x': []},,55.0,0.0,,,10.1209/0295-5075/87/27012
La Fe As O 1-x F x,{'x': []},,26.0,0.0,,,10.1209/0295-5075/87/27012
Mg B 2,{},"{'Mg': 1, 'B': 2}",38.0,0.0,polycrystalline,,10.1209/epl/i2002-00656-8
Sm O 1-x F x F e As,"{'x': [], 'e': []}",,55.0,0.0,,,10.1088/1367-2630/11/3/035003
La O 1-x F x F e As,"{'x': [], 'e': []}",,40.0,0.0,,,10.1088/1367-2630/11/3/035003
La Fe As O 1-x F x,{'x': []},,15.0,0.0,,,10.1007/bf00627935
La Fe As O,{},"{'La': 1, 'Fe': 1, 'As': 1, 'O': 1}",26.0,0.0,,,10.1007/978-94-007-4762-3_82
Ca 0.94 La 0.06 Fe 2 As 2,{},"{'Ca': 0.94, 'La': 0.06, 'Fe': 2, 'As': 2}",35.0,0.0,,,10.1103/physrevb.84.140505
Mg B 2,{},"{'Mg': 1, 'B': 2}",37.0,0.0,,,10.1103/physrevlett.104.035701
Cr O 2,{},"{'Cr': 1, 'O': 2}",2.0,0.0,,,10.1103/physrevlett.104.035701
La O 0.5 F 0.5 Bi S 2,{},"{'La': 1, 'O': 0.5, 'F': 0.5, 'Bi': 1, 'S': 2}",3.0,0.0,,,10.1016/j.ssc.2013.11.027
La Fe As O,{},"{'La': 1, 'Fe': 1, 'As': 1, 'O': 1}",26.0,0.0,,,10.1016/j.physc.2009.03.048
Sm Fe As O 0.6 F 0.35,{},"{'Sm': 1, 'Fe': 1, 'As': 1, 'O': 0.6, 'F': 0.35}",52.0,0.0,single crystal,,10.1016/j.physc.2009.03.048
Nd Fe As O 0.8 F 0.2,{},"{'Nd': 1, 'Fe': 1, 'As': 1, 'O': 0.8, 'F': 0.2}",45.0,0.0,,,10.1016/j.physc.2009.03.048
Sm Fe As O 0.8 F 0.2,{},"{'Sm': 1, 'Fe': 1, 'As': 1, 'O': 0.8, 'F': 0.2}",45.0,0.0,crystal,,10.1016/j.physc.2009.03.048
Rb Fe 2 As 2,{},"{'Rb': 1, 'Fe': 2, 'As': 2}",2.6,0.0,,,10.1016/j.physc.2009.03.048
Cs Fe 2 As 2,{},"{'Cs': 1, 'Fe': 2, 'As': 2}",3.8,0.0,,,10.1016/j.physc.2009.03.048
Ca Fe 2 As 2,{},"{'Ca': 1, 'Fe': 2, 'As': 2}",38.0,0.0,,,10.1016/j.physc.2009.03.048
Sr Fe 2 As 2,{},"{'Sr': 1, 'Fe': 2, 'As': 2}",38.0,0.0,,,10.1016/j.physc.2009.03.048
Ba Fe 2 As 2,{},"{'Ba': 1, 'Fe': 2, 'As': 2}",38.0,0.0,,,10.1016/j.physc.2009.03.048
Th Cr 2 Si 2,{},"{'Th': 1, 'Cr': 2, 'Si': 2}",38.0,0.0,,,10.1016/j.physc.2009.03.048
K Fe 2 As 2,{},"{'K': 1, 'Fe': 2, 'As': 2}",3.8,0.0,,,10.1016/j.physc.2009.03.048
Ba (Fe 0.92 Co 0.08) 2 As 2,{},"{'Ba': 1, 'Fe': 1.84, 'Co': 0.16, 'As': 2}",20.0,0.0,,,10.1088/1367-2630/12/2/023006
Ba 0.6 K 0.4 Fe 2 As 2,{},"{'Ba': 0.6, 'K': 0.4, 'Fe': 2, 'As': 2}",37.0,0.0,,,10.1088/1367-2630/12/2/023006
Sn,{},{'Sn': 1},9.2,0.0,,,10.1103/physrevb.88.094515
Pr Ru 4 Sb 12,{},"{'Pr': 1, 'Ru': 4, 'Sb': 12}",1.25,0.0,,,10.1103/physrevb.69.180509
Ba Ti 2 Sb 2 O,{},"{'Ba': 1, 'Ti': 2, 'Sb': 2, 'O': 1}",1.2,0.0,,,10.1103/physrevb.94.104515
K Fe 2 As 2,{},"{'K': 1, 'Fe': 2, 'As': 2}",3.0,0.0,,,10.1103/physrevlett.104.087005
Ce Co In 5,{},"{'Ce': 1, 'Co': 1, 'In': 5}",2.3,0.0,,,10.1103/physrevlett.104.087005
Li,{},{'Li': 1},4.15,24.0,,,10.1103/physrevlett.91.167001
Li,{},{'Li': 1},7.0,48.0,,,10.1103/physrevlett.91.167001
Li,{},{'Li': 1},5.47,20.3,,,10.1103/physrevlett.91.167001
Cu 0.05 Pd Te 2,{},"{'Cu': 0.05, 'Pd': 1, 'Te': 2}",2.4,0.0,crystal,,10.1088/1674-1056/24/6/067401
Pd Te 2,{},"{'Pd': 1, 'Te': 2}",1.7,0.0,,,10.1088/1674-1056/24/6/067401
Cu 0.05 Pd Te 2,{},"{'Cu': 0.05, 'Pd': 1, 'Te': 2}",2.4,0.0,,,10.1088/1674-1056/24/6/067401
Fe Se 22,{},"{'Fe': 1, 'Se': 22}",48.0,0.0,,,10.1038/ncomms14468
Fe Se,{},"{'Fe': 1, 'Se': 1}",50.0,0.0,,,10.1038/ncomms14468
Ti O 2,{},"{'Ti': 1, 'O': 2}",50.0,0.0,,,10.1038/ncomms14468
Ca 1-x La x Fe 2 As 2,{'x': []},,20.0,0.0,,,
Ca Fe 2 As 2,{},"{'Ca': 1, 'Fe': 2, 'As': 2}",40.0,0.0,,,
Sr Fe 2 As 2,{},"{'Sr': 1, 'Fe': 2, 'As': 2}",20.0,0.0,,,
Bi 2 Sr 2 Ca Cu 2 O 8+δ,{'δ': []},,91.0,0.0,,,10.1007/978-94-010-0771-9_7
Y Ba 2 (Cu 0.99 Zn 0.01) 3 O 7,{},"{'Y': 1, 'Ba': 2, 'Cu': 2.9699999999999998, 'Zn': 0.03, 'O': 7}",85.0,0.0,,,10.1007/978-94-010-0771-9_7
Y Ba 2 (Cu 0.97 Ni 0.03) 3 O 7,{},"{'Y': 1, 'Ba': 2, 'Cu': 2.91, 'Ni': 0.09, 'O': 7}",80.0,0.0,,,10.1007/978-94-010-0771-9_7
La Fe As O 1-x F x,{'x': []},,27.0,0.0,,,10.1088/1742-6596/200/3/032080
Ba 1-y K y Fe 2 As 2,{'y': []},,38.0,0.0,,,10.1088/1742-6596/200/3/032080
Ca 1.88 Na 0.12 Cu O 2 Cl 2,{},"{'Ca': 1.88, 'Na': 0.12, 'Cu': 1, 'O': 2, 'Cl': 2}",21.0,0.0,,,10.1126/science.1138584
Bi 2 Sr 2 Dy 0.2 Ca 0.8 Cu 2 O 8+δ,{'δ': []},,45.0,0.0,,,10.1126/science.1138584
K x Fe 2-y Se 2,"{'x': [], 'y': []}",,25.0,0.0,,,10.1103/physrevb.95.100504
Mo Te 2,{},"{'Mo': 1, 'Te': 2}",0.1,11.0,,,10.1103/physrevb.98.245418
Er Ni 2 B 2 C,{},"{'Er': 1, 'Ni': 2, 'B': 2, 'C': 1}",10.5,0.0,,,10.1103/physrevb.92.014517
Fe Se,{},"{'Fe': 1, 'Se': 1}",10.0,0.0,,,10.1103/physrevlett.116.157001
Fe Se,{},"{'Fe': 1, 'Se': 1}",65.0,0.0,films,SrTiO 3 (FeSe/SrTiO 3,10.1103/physrevlett.116.157001
Fe Se,{},"{'Fe': 1, 'Se': 1}",40.0,0.0,,,10.1103/physrevlett.116.157001
C 66,{},{'C': 66},10.0,0.0,,,10.1103/physrevb.84.024528
Pb In,{},"{'Pb': 1, 'In': 1}",6.9,0.0,polycrystalline,,10.1103/physrevlett.90.087002
K 3 C 60,{},"{'K': 3, 'C': 60}",28.0,0.0,,,10.1088/1742-6596/449/1/012030
Cs 3 C 60,{},"{'Cs': 3, 'C': 60}",40.0,0.0,,,10.1088/1742-6596/449/1/012030
Eu Fe 4 Sb 12,{},"{'Eu': 1, 'Fe': 4, 'Sb': 12}",88.0,0.0,,,10.1103/physrevb.98.064506
Pr Pt 4 Ge 12,{},"{'Pr': 1, 'Pt': 4, 'Ge': 12}",7.9,0.0,,,10.1103/physrevb.98.064506
K 3 C 60,{},"{'K': 3, 'C': 60}",40.0,0.0,crystals,,10.1103/physrevb.97.140505
Rb 3 C 60,{},"{'Rb': 3, 'C': 60}",40.0,0.0,crystals,,10.1103/physrevb.97.140505
Cs 3 C 60,{},"{'Cs': 3, 'C': 60}",40.0,0.0,crystals,,10.1103/physrevb.97.140505
Hg Ba 2 Ca 2 Cu 3 O 8,{},"{'Hg': 1, 'Ba': 2, 'Ca': 2, 'Cu': 3, 'O': 8}",133.0,0.0,,,10.1103/physrevb.97.140505
La Ba Cu O,{},"{'La': 1, 'Ba': 1, 'Cu': 1, 'O': 1}",30.0,0.0,,,10.1103/physrevb.97.140505
C 60,{},{'C': 60},60.0,0.0,,,10.1103/physrevb.97.140505
La 2 Cu O 4,{},"{'La': 2, 'Cu': 1, 'O': 4}",32.0,0.0,,,
Eu Fe 2 (As 0.7 P 0.3) 2,{},"{'Eu': 1, 'Fe': 2, 'As': 1.4, 'P': 0.6}",26.0,0.0,,,10.1103/physrevb.86.220505
Ga 0.947 Mn 0.053,{},"{'Ga': 0.947, 'Mn': 0.053}",100.0,0.0,,,
Ga 0.947 Mn 0.053,{},"{'Ga': 0.947, 'Mn': 0.053}",110.0,0.0,,,
Ga 0.957 Mn 0.043,{},"{'Ga': 0.957, 'Mn': 0.043}",70.0,0.0,,,
Cu x Bi 2 Se 3,{'x': []},,1.2,0.0,,,10.1088/1361-6633/aa6ac7
Cu x Bi 2 Se 3,{'x': []},,4.0,0.0,,,10.1088/1361-6633/aa6ac7
Cu 0.3 Bi 2 Se 3,{},"{'Cu': 0.3, 'Bi': 2, 'Se': 3}",1.4,0.0,,,10.1088/1361-6633/aa6ac7
Cu x (Pb Se) 5 (Bi 2 Se 3) 6,{'x': []},,2.85,0.0,,,10.1088/1361-6633/aa6ac7
La Cu Sb 2,{},"{'La': 1, 'Cu': 1, 'Sb': 2}",0.5,0.0,,,10.1109/nap.2017.8190169
La (Cu 0.8 Ag 0.2) Sb 2,{},"{'La': 1, 'Cu': 0.8, 'Ag': 0.2, 'Sb': 2}",0.5,0.0,,,10.1109/nap.2017.8190169
La (Cu 0.8 Ag 0.2) Sb 2,{},"{'La': 1, 'Cu': 0.8, 'Ag': 0.2, 'Sb': 2}",1.0,0.0,,,10.1109/nap.2017.8190169
La Cu Sb 2,{},"{'La': 1, 'Cu': 1, 'Sb': 2}",1.0,0.0,,,10.1109/nap.2017.8190169
La 2 Cu O 4+y,{'y': []},,42.0,0.0,,,10.1103/physrevb.97.104506
La 1.885 Sr 0.115 Cu O 4,{},"{'La': 1.885, 'Sr': 0.115, 'Cu': 1, 'O': 4}",30.0,0.0,,,10.1103/physrevb.97.104506
La 1.885 Sr 0.115 Cu O 4,{},"{'La': 1.885, 'Sr': 0.115, 'Cu': 1, 'O': 4}",80.0,0.0,,,10.1103/physrevb.97.104506
La 1.85 Sr 0.15 Cu O 4,{},"{'La': 1.85, 'Sr': 0.15, 'Cu': 1, 'O': 4}",42.0,0.0,,,10.1103/physrevb.97.104506
Nb,{},{'Nb': 1},9.22,0.0,,,
Mg B 2,{},"{'Mg': 1, 'B': 2}",39.0,0.0,,,10.1016/j.physb.2005.01.138
Sr 2 Ru O 4,{},"{'Sr': 2, 'Ru': 1, 'O': 4}",0.93,0.0,,,10.1103/physrevb.69.024519
Mg B 2,{},"{'Mg': 1, 'B': 2}",40.0,0.0,,,10.1103/physrevb.80.014520
Ba 1-x K x Fe 2 As 2,{'x': [0.3]},"{'Ba': 0.7, 'K': 0.3, 'Fe': 2, 'As': 2}",38.0,0.0,,,10.1143/jpsj.78.033704
La Fe As O,{},"{'La': 1, 'Fe': 1, 'As': 1, 'O': 1}",26.0,0.0,,,10.1143/jpsj.78.033704
Ba Fe 2 As 2,{},"{'Ba': 1, 'Fe': 2, 'As': 2}",38.0,0.0,,,10.1143/jpsj.78.033704
Ba 1-x K x Fe 2 As 2,{'x': []},,35.0,0.0,,,10.1143/jpsj.78.033704
Bi,{},{'Bi': 1},86.0,0.0,,,10.1209/epl/i2005-10254-4
Fe Se,{},"{'Fe': 1, 'Se': 1}",8.8,0.0,single crystal,,10.1103/physrevb.80.024518
Ba 1-x K x Fe 2 As 2,{'x': []},,30.0,0.0,,,10.1103/physrevb.80.024518
Ba Ni 2 As 2,{},"{'Ba': 1, 'Ni': 2, 'As': 2}",0.7,0.0,,,10.1103/physrevb.80.024518
Ba Fe 1.9 Ni 0.1 As 2,{},"{'Ba': 1, 'Fe': 1.9, 'Ni': 0.1, 'As': 2}",30.0,0.0,,,10.1103/physrevb.80.024518
Fe Se x,{'x': []},,8.8,0.0,,,10.1103/physrevb.80.024518
Ba 0.6 K 0.4 Fe 2 As 2,{},"{'Ba': 0.6, 'K': 0.4, 'Fe': 2, 'As': 2}",37.0,0.0,,,10.1103/physrevb.80.024518
Ba Fe 1.85 Co 0.15 As 2,{},"{'Ba': 1, 'Fe': 1.85, 'Co': 0.15, 'As': 2}",25.5,0.0,,,10.1103/physrevb.80.024518
Sr 2 Ru O 4,{},"{'Sr': 2, 'Ru': 1, 'O': 4}",1.5,0.0,,,10.1103/physrevb.80.024518
Fe Se,{},"{'Fe': 1, 'Se': 1}",8.0,0.0,,,10.1103/physrevb.80.024518
Tl 2 Ba 2 Cu O 6,{},"{'Tl': 2, 'Ba': 2, 'Cu': 1, 'O': 6}",15.0,0.0,,,10.1103/physrevb.80.024518
Fe Se,{},"{'Fe': 1, 'Se': 1}",37.0,0.0,,,10.1103/physrevb.80.024518
Tl 2 Ba 2 Cu O 6+δ,{'δ': []},,15.0,0.0,,,10.1103/physrevb.68.100502
La 1.885 Sr 0.115 Cu O 4,{},"{'La': 1.885, 'Sr': 0.115, 'Cu': 1, 'O': 4}",30.0,0.0,,,
Bi 1.85 Pb 0.35 Sr 2 Ca Cu 2 O 8+x,{'x': []},,90.0,0.0,,,10.1088/0953-2048/28/4/045006
Y B 6,{},"{'Y': 1, 'B': 6}",7.1,0.0,single crystals,,10.1103/physrevb.96.144501
Y B 6,{},"{'Y': 1, 'B': 6}",7.4,0.0,crystal,,10.1103/physrevb.96.144501
Y B 6 No 0.2,{},"{'Y': 1, 'B': 6, 'No': 0.2}",7.4,0.0,crystal,,10.1103/physrevb.96.144501
Mg B 2,{},"{'Mg': 1, 'B': 2}",39.0,0.0,,,10.1103/physrevb.96.144501
Be,{},{'Be': 1},0.026,0.0,,,10.1103/physrevb.96.144501
Y B 6,{},"{'Y': 1, 'B': 6}",8.0,0.0,,,10.1103/physrevb.96.144501
Y B 6,{},"{'Y': 1, 'B': 6}",7.2,0.0,single crystals,,10.1103/physrevb.96.144501
Al 2 O 3,{},"{'Al': 2, 'O': 3}",5.8,0.0,,,10.1103/physrevb.96.144501
Y B 6,{},"{'Y': 1, 'B': 6}",8.4,0.0,,,10.1103/physrevb.96.144501
Lu Ni 2 B 2 C,{},"{'Lu': 1, 'Ni': 2, 'B': 2, 'C': 1}",16.6,0.0,,,10.1103/physrevb.79.174522
La 1.48 Nd 0.4 Sr 0.12 Cu O 4,{},"{'La': 1.48, 'Nd': 0.4, 'Sr': 0.12, 'Cu': 1, 'O': 4}",6.0,0.0,,,10.1126/sciadv.aay8946
Be (B) 2.75,{},"{'Be': 1, 'B': 2.75}",0.72,0.0,Polycrystalline,,10.1103/physrevb.65.180518
Be B 2.75,{},"{'Be': 1, 'B': 2.75}",0.72,0.0,,,10.1103/physrevb.65.180518
Be B 2,{},"{'Be': 1, 'B': 2}",5.0,0.0,,,10.1103/physrevb.65.180518
B,{},{'B': 1},0.79,0.0,,,10.1103/physrevb.65.180518
Nd 2 Cu O 4,{},"{'Nd': 2, 'Cu': 1, 'O': 4}",24.0,0.0,,,10.1007/s100510050858
Ce,{},{'Ce': 1},24.0,0.0,,,10.1007/s100510050858
Y Ba 2 Cu 3 O 6.5,{},"{'Y': 1, 'Ba': 2, 'Cu': 3, 'O': 6.5}",52.0,0.0,,,10.1016/s0921-4526(97)00711-4
La 1.86 Sr 0.14 Cu 0.988 Zn 0.012 O 4-δ,{'δ': []},,19.0,0.0,,,10.1016/s0921-4526(97)00711-4
Y Ba 2 Cu 3 O 6.6,{},"{'Y': 1, 'Ba': 2, 'Cu': 3, 'O': 6.6}",62.7,0.0,,,10.1016/s0921-4526(97)00711-4
Bi 2 Sr 2 Cu O 6,{},"{'Bi': 2, 'Sr': 2, 'Cu': 1, 'O': 6}",30.0,0.0,,,10.1080/13642810208220725
Y Ba 2 Cu 3 O 7-δ,{'δ': []},,93.0,0.0,,,10.1002/(sici)1521-3951(199811)210:1<159::aid-pssb159>3.0.co;2-j
Cu 3 O 7,{},"{'Cu': 3, 'O': 7}",93.0,0.0,,,10.1002/(sici)1521-3951(199811)210:1<159::aid-pssb159>3.0.co;2-j
Ca Sn 3,{},"{'Ca': 1, 'Sn': 3}",4.2,0.0,,,10.1063/1.4984262
Bi 2 Sr 2 Ca Cu 2 O 8,{},"{'Bi': 2, 'Sr': 2, 'Ca': 1, 'Cu': 2, 'O': 8}",65.0,0.0,,,10.1126/science.1198415
Bi 2 Sr 2 Ca Cu 2 O 8,{},"{'Bi': 2, 'Sr': 2, 'Ca': 1, 'Cu': 2, 'O': 8}",97.0,0.0,,,10.1126/science.1198415
Fe 1.03 Se,{},"{'Fe': 1.03, 'Se': 1}",10.9,0.0,,,10.1016/j.ssc.2011.01.010
Fe Se,{},"{'Fe': 1, 'Se': 1}",27.0,1.48,,,10.1016/j.ssc.2011.01.010
Ru Sr 2 Gd Cu 2 O 8,{},"{'Ru': 1, 'Sr': 2, 'Gd': 1, 'Cu': 2, 'O': 8}",30.0,0.0,,,10.1140/epjb/e2006-00317-4