Material,Substitutions,Composition,Tc (K),Pressure (GPa),Shape,Substrate,DOI
Sr 2 Sc Fe P O 3,{},"{'Sr': 2, 'Sc': 1, 'Fe': 1, 'P': 1, 'O': 3}",17.0,0.0,,,10.1088/1674-1056/22/8/087410
Ba Fe 2 As 2,{},"{'Ba': 1, 'Fe': 2, 'As': 2}",21.0,0.0,,,10.1088/1674-1056/22/8/087410
Sr 2 V Fe As O 3,{},"{'Sr': 2, 'V': 1, 'Fe': 1, 'As': 1, 'O': 3}",37.2,0.0,,,10.1088/1674-1056/22/8/087410
K x Fe 2 Se 2,{'x': []},,32.0,0.0,,,10.1088/1674-1056/22/8/087410
Fe S Cs,{},"{'Fe': 1, 'S': 1, 'Cs': 1}",26.0,0.0,,,10.1088/1674-1056/22/8/087410
Sr 2 Cu O 2 Fe 2 As 2,{},"{'Sr': 2, 'Cu': 1, 'O': 2, 'Fe': 2, 'As': 2}",30.2,0.0,,,10.1088/1674-1056/22/8/087410
Li Fe As,{},"{'Li': 1, 'Fe': 1, 'As': 1}",18.0,0.0,,,10.1088/1674-1056/22/8/087410
Li Fe P,{},"{'Li': 1, 'Fe': 1, 'P': 1}",6.0,0.0,,,10.1088/1674-1056/22/8/087410
Sr 2 Sc Fe As O 3,{},"{'Sr': 2, 'Sc': 1, 'Fe': 1, 'As': 1, 'O': 3}",45.0,0.0,,,10.1088/1674-1056/22/8/087410
La Fe As O 1-x F x,{'x': []},,26.0,0.0,,,10.1088/1674-1056/22/8/087410
Fe S C,{},"{'Fe': 1, 'S': 1, 'C': 1}",8.0,0.0,,,10.1088/1674-1056/22/8/087410
Fe S Cs,{},"{'Fe': 1, 'S': 1, 'Cs': 1}",55.0,0.0,,,10.1088/1674-1056/22/8/087410
V 3 Si,{},"{'V': 3, 'Si': 1}",15.0,0.0,,,10.1016/s0921-4534(00)01656-7
Mg B 2,{},"{'Mg': 1, 'B': 2}",30.0,0.0,,,10.1134/1.558395
Fe Se,{},"{'Fe': 1, 'Se': 1}",37.0,9.0,,,10.1016/j.intermet.2013.04.015
Fe Te,{},"{'Fe': 1, 'Te': 1}",8.0,0.0,,,10.1016/j.intermet.2013.04.015
Fe Se,{},"{'Fe': 1, 'Se': 1}",8.0,0.0,,,10.1016/j.intermet.2013.04.015
Fe Se 0.5 Te 0.5,{},"{'Fe': 1, 'Se': 0.5, 'Te': 0.5}",26.0,2.0,,,10.1016/j.intermet.2013.04.015
Fe Se,{},"{'Fe': 1, 'Se': 1}",10.0,0.0,,,10.1016/j.intermet.2013.04.015
Ba Fe 2 As 2,{},"{'Ba': 1, 'Fe': 2, 'As': 2}",22.0,0.0,,,10.1038/srep07305
Ca F 2,{},"{'Ca': 1, 'F': 2}",3.0,0.0,,,10.1038/srep07305
Mg B 2,{},"{'Mg': 1, 'B': 2}",38.3,0.0,,,10.1103/physrevb.70.064520
Mg B 2,{},"{'Mg': 1, 'B': 2}",22.0,0.0,,,10.1103/physrevb.70.064520
Fe Se,{},"{'Fe': 1, 'Se': 1}",46.0,0.0,,,10.1209/0295-5075/109/67004
Fe Se,{},"{'Fe': 1, 'Se': 1}",42.0,0.0,,,10.1209/0295-5075/109/67004
Fe Se 0.5 Te 0.5,{},"{'Fe': 1, 'Se': 0.5, 'Te': 0.5}",13.0,0.0,,,10.1209/0295-5075/109/67004
Fe Se,{},"{'Fe': 1, 'Se': 1}",31.0,0.0,,,10.1209/0295-5075/109/67004
Sr Fe 1-x Ir x As 2,{'x': []},,22.0,0.0,,,10.1103/physrevb.79.174530
La Fe 1-x Ir x As O,{'x': []},,10.5,0.0,,,10.1103/physrevb.79.174530
Ba (Sr) Fe 2-x Ru x As 2,{'x': []},,21.0,0.0,,,10.1103/physrevb.79.174530
Ba (Sr) Ru 2 As 2,{},"{'Ba': 1, 'Sr': 1, 'Ru': 2, 'As': 2}",21.0,0.0,,,10.1103/physrevb.79.174530
Fe Se,{},"{'Fe': 1, 'Se': 1}",30.0,0.0,,,10.4028/www.scientific.net/amm.110-116.310
K x Fe 2 Se 2,{'x': []},,30.0,0.0,,,10.4028/www.scientific.net/amm.110-116.310
Rb x Fe 2 Se 2,{'x': []},,30.0,0.0,,,10.4028/www.scientific.net/amm.110-116.310
Cs x Fe 2 Se 2,{'x': []},,30.0,0.0,,,10.4028/www.scientific.net/amm.110-116.310
Tl x Fe 2 Se 2,{'x': []},,30.0,0.0,,,10.4028/www.scientific.net/amm.110-116.310
La 2-x Sr x Cu O 4,{'x': []},,40.0,0.0,,,10.1103/physrevlett.105.257005
La 2-x Sr x Cu O 4,{'x': []},,40.0,0.0,,,
Pr Ba 2 Cu 3 O 7,{},"{'Pr': 1, 'Ba': 2, 'Cu': 3, 'O': 7}",17.0,0.0,,,10.1063/1.3662151
Nd 4f Co 3,{'f': []},,5.4,0.0,,,10.1063/1.3662151
Nd Co P O,{},"{'Nd': 1, 'Co': 1, 'P': 1, 'O': 1}",2.5,0.0,,,10.1063/1.3662151
Sm 4f Co 3,{'f': []},,20.0,0.0,,,10.1063/1.3662151
Sm,{},{'Sm': 1},80.0,0.0,,,10.1063/1.3662151
Nd Co P O,{},"{'Nd': 1, 'Co': 1, 'P': 1, 'O': 1}",80.0,0.0,,,10.1063/1.3662151
Zr Te 3,{},"{'Zr': 1, 'Te': 3}",2.0,0.0,,,10.1088/1674-1056/27/8/087503
Mo 2 N,{},"{'Mo': 2, 'N': 1}",6.4,0.0,film,,
Mg B 2,{},"{'Mg': 1, 'B': 2}",40.0,0.0,,,10.1088/1402-4896/ab0b4b
Sr 0.9 La 0.1 Cu O 2,{},"{'Sr': 0.9, 'La': 0.1, 'Cu': 1, 'O': 2}",42.0,0.0,,,10.1016/0022-3697(95)00226-x
La 1.85 Sr 0.15 Cu O 4,{},"{'La': 1.85, 'Sr': 0.15, 'Cu': 1, 'O': 4}",38.0,0.0,,,10.1016/0022-3697(95)00226-x
S,{},{'S': 1},9.0,0.0,,,10.1002/chin.200626199
C S 3,{},"{'C': 1, 'S': 3}",9.0,0.0,,,10.1002/chin.200626199
C S 3,{},"{'C': 1, 'S': 3}",65.0,0.0,,,10.1002/chin.200626199
C S,{},"{'C': 1, 'S': 1}",35.0,0.0,,,10.1002/chin.200626199
Al,{},{'Al': 1},1.19,0.0,,,10.1103/physrevapplied.7.044021
Ce Co In 5,{},"{'Ce': 1, 'Co': 1, 'In': 5}",2.3,0.0,,,10.1007/s11467-016-0549-6
Ce Rh In 5,{},"{'Ce': 1, 'Rh': 1, 'In': 5}",2.3,0.0,,,10.1007/s11467-016-0549-6
Ce Ir In 5,{},"{'Ce': 1, 'Ir': 1, 'In': 5}",2.3,0.0,,,10.1007/s11467-016-0549-6
Tl Ni 2 S 2,{},"{'Tl': 1, 'Ni': 2, 'S': 2}",2.3,0.0,crystal,,
Tl Ni 2 Se 2,{},"{'Tl': 1, 'Ni': 2, 'Se': 2}",3.7,0.0,,,
K Ni 2 S 2,{},"{'K': 1, 'Ni': 2, 'S': 2}",0.46,0.0,,,
Tl Ni 2 S 2,{},"{'Tl': 1, 'Ni': 2, 'S': 2}",2.3,0.0,,,
K Ni 2 Se 2,{},"{'K': 1, 'Ni': 2, 'Se': 2}",0.8,0.0,,,
Sr Ni 2 P 2,{},"{'Sr': 1, 'Ni': 2, 'P': 2}",1.4,0.0,,,
Tl Ni 2 S 2,{},"{'Tl': 1, 'Ni': 2, 'S': 2}",2.25,0.0,,,
Tl Ni 2 S 2,{},"{'Tl': 1, 'Ni': 2, 'S': 2}",2.0,0.0,,,
Tl Ni 2 Se 2,{},"{'Tl': 1, 'Ni': 2, 'Se': 2}",2.0,0.0,,,
Ba Ni 2 As 2,{},"{'Ba': 1, 'Ni': 2, 'As': 2}",0.7,0.0,,,
La O 1-x F x Fe As,{'x': []},,26.0,0.0,,,10.1016/j.physc.2011.06.002
Fe Se,{},"{'Fe': 1, 'Se': 1}",37.0,0.0,,,10.1143/apex.2.083004
H 2 S,{},"{'H': 2, 'S': 1}",203.0,155.0,,,10.7566/jpsj.87.124711
S,{},{'S': 1},203.0,155.0,,,10.7566/jpsj.87.124711
H 3 S,{},"{'H': 3, 'S': 1}",280.0,250.0,,,10.7566/jpsj.87.124711
Mg B 2,{},"{'Mg': 1, 'B': 2}",40.0,0.0,,,10.1063/1.1392979
Pu Co Ga 5,{},"{'Pu': 1, 'Co': 1, 'Ga': 5}",18.5,0.0,,,10.1073/pnas.1421174112
Tl 2 Ba 2 Cu O 6+x,{'x': []},,90.0,0.0,,,10.1103/physrevlett.96.257001
Y 0.85 Ca 0.15 Ba 2 Cu 3 O 7,{},"{'Y': 0.85, 'Ca': 0.15, 'Ba': 2, 'Cu': 3, 'O': 7}",75.0,0.0,,,10.1103/physrevlett.96.257001
Y Ba 2 Cu 3 O 6.6,{},"{'Y': 1, 'Ba': 2, 'Cu': 3, 'O': 6.6}",63.0,0.0,,,10.1103/physrevlett.96.257001
Ru,{},{'Ru': 1},45.0,0.0,,,10.1103/physrevb.67.020407
Sc 3 Co C 4,{},"{'Sc': 3, 'Co': 1, 'C': 4}",4.5,0.0,,,
Mg B 2,{},"{'Mg': 1, 'B': 2}",40.0,0.0,,,10.1016/s0038-1098(01)00351-9
Ba (Fe 0.92 Co 0.08) 2 As 2,{},"{'Ba': 1, 'Fe': 1.84, 'Co': 0.16, 'As': 2}",23.0,0.0,,,10.1103/physrevb.93.085137
Mo 2 C,{},"{'Mo': 2, 'C': 1}",7.3,0.0,,,10.1149/07711.0559ecst
W 2 C,{},"{'W': 2, 'C': 1}",4.05,0.0,,,10.1149/07711.0559ecst
Y Ba Cu O,{},"{'Y': 1, 'Ba': 1, 'Cu': 1, 'O': 1}",93.0,0.0,,,10.1007/bf02562882
Pr Ce Cu O,{},"{'Pr': 1, 'Ce': 1, 'Cu': 1, 'O': 1}",21.0,0.0,,,10.1007/bf02562882
Bi Sr Ca Cu O,{},"{'Bi': 1, 'Sr': 1, 'Ca': 1, 'Cu': 1, 'O': 1}",90.0,0.0,,,10.1007/bf02562882
C 3,{},{'C': 3},90.0,0.0,,,
Y Ba 2 Cu 3 O 7-δ,{'δ': []},,90.0,0.0,,,
B 2,{},{'B': 2},74.0,0.0,,,
C 3,{},{'C': 3},60.0,0.0,,,
B 2,{},{'B': 2},90.0,0.0,,,
Ba 2 Cu O 6,{},"{'Ba': 2, 'Cu': 1, 'O': 6}",15.0,0.0,,,10.1073/pnas.0712292105
Tl 2 Ba 2 Cu O 6+x,{'x': []},,15.0,0.0,,,10.1073/pnas.0712292105
Nb 0.7 B 2,{},"{'Nb': 0.7, 'B': 2}",8.1,0.0,,,10.1103/physrevb.73.224516
Mg B 2,{},"{'Mg': 1, 'B': 2}",39.0,0.0,,,10.1103/physrevb.73.224516
La 2-x Sr x Cu 1-y Ni y O 4,"{'x': [], 'y': []}",,2.0,0.0,,,10.1103/physrevb.83.144521
Mg B 2,{},"{'Mg': 1, 'B': 2}",39.0,0.0,,,10.1103/physrevb.69.144514
Ce Pt 3 Si,{},"{'Ce': 1, 'Pt': 3, 'Si': 1}",0.75,0.0,,,10.1103/physrevb.82.024520
Sm O 1-x F x Fe As,{'x': []},,52.0,0.0,,,10.1088/0953-2048/23/5/055002
Sm O 1-x F x Fe As,{'x': []},,43.0,0.0,,,10.1088/0953-2048/23/5/055002
La O 1-x F x Fe As,{'x': []},,26.0,0.0,,,10.1088/0953-2048/23/5/055002
Sm O 1-x F x Fe As,{'x': []},,56.1,0.0,,,10.1088/0953-2048/23/5/055002
Sm O 0.8 F 0.2 Fe As,{},"{'Sm': 1, 'O': 0.8, 'F': 0.2, 'Fe': 1, 'As': 1}",56.1,0.0,,,10.1088/0953-2048/23/5/055002
N b Se 2,{'b': []},,7.2,0.0,,,10.1103/physrevb.87.054503
Y 1-x Pr x Ba 2 Cu 3 O 7-δ,"{'δ': [], 'x': [0.2]}",,70.0,0.0,,,
H c2,{'c': []},,15.0,0.0,,,10.1103/physrevb.100.054507
Tl 2 Ba 2 Cu O 6+δ,{'δ': []},,89.0,0.0,,,10.1103/physrevb.88.020501
Tl 2 Ba 2 Cu O 6+δ,{'δ': []},,6.0,0.0,,,10.1103/physrevb.88.020501
Y 0.85 Ca 0.15 Ba 2 Cu 3 O 6+x,{'x': []},,75.0,0.0,single crystal,,10.1103/physrevb.88.020501
Y 1-x Ca x Ba 2 Cu 3 O 6+δ,"{'δ': [], 'x': []}",,89.0,0.0,,,10.1103/physrevb.88.020501
Tl 0.64 K 0.36 Fe 1.83 Se 2,{},"{'Tl': 0.64, 'K': 0.36, 'Fe': 1.83, 'Se': 2}",40.0,0.0,crystal,,10.1209/0295-5075/94/27009
Ba 1-x K x Fe 2 As 2,{'x': []},,38.0,0.0,,,10.1209/0295-5075/94/27009
Tl 0.64 K 0.36 Fe 1.83 Se 2,{},"{'Tl': 0.64, 'K': 0.36, 'Fe': 1.83, 'Se': 2}",30.0,0.0,crystal,,10.1209/0295-5075/94/27009
Tl Fe 1.7 Se 2,{},"{'Tl': 1, 'Fe': 1.7, 'Se': 2}",20.0,0.0,crystals,,10.1209/0295-5075/94/27009
(Tl K) Fe x Se 2,{'x': []},,40.0,0.0,crystals,,10.1209/0295-5075/94/27009
(Tl K) Fe x Se 2 Cr ystals,"{'x': [], 'a': [], 's': [], 'l': [], 't': [], 'y': []}",,31.0,0.0,,,10.1209/0295-5075/94/27009
Y B 2 C 3 O 6+δ,{'δ': [0.6]},"{'Y': 1, 'B': 2, 'C': 3, 'O': 6.6}",61.0,0.0,,,10.1103/physrevb.85.155130
Hg,{},{'Hg': 1},81.0,0.0,,,10.1103/physrevb.85.155130
Fe Se,{},"{'Fe': 1, 'Se': 1}",40.0,0.0,,,10.1103/physrevb.96.045130
Fe Se,{},"{'Fe': 1, 'Se': 1}",9.0,0.0,Bulk,,10.1103/physrevb.96.045130
Li 1-x Fe x O H Fe Se,{'x': []},,40.0,0.0,,,10.1103/physrevb.96.045130
(Li Fe) O H Fe Se,{},"{'Li': 1, 'Fe': 2, 'O': 1, 'H': 1, 'Se': 1}",40.0,0.0,,,10.1103/physrevb.96.045130
La (O 1-x F x) Fe As,{'x': []},,50.0,0.0,,,10.1143/jpsj.77.073701
Bi 2 Sr 2 Ca Cu 2 O 8,{},"{'Bi': 2, 'Sr': 2, 'Ca': 1, 'Cu': 2, 'O': 8}",90.0,0.0,,,10.1103/physrevb.46.5588
Bi 2 Sr 2 Ca Cu 2 O 8,{},"{'Bi': 2, 'Sr': 2, 'Ca': 1, 'Cu': 2, 'O': 8}",11.0,0.0,,,10.1103/physrevb.46.5588
Bi 2 Sr 2 Cu O 6,{},"{'Bi': 2, 'Sr': 2, 'Cu': 1, 'O': 6}",11.0,0.0,,,10.1103/physrevb.46.5588
Bi 2 Sr 2 Cu O 6,{},"{'Bi': 2, 'Sr': 2, 'Cu': 1, 'O': 6}",12.0,0.0,,,10.1103/physrevb.46.5588
Bi 2 Sr 2 Cu O 6,{},"{'Bi': 2, 'Sr': 2, 'Cu': 1, 'O': 6}",29.0,0.0,,,10.1103/physrevb.46.5588
Ag B 2,{},"{'Ag': 1, 'B': 2}",39.0,0.0,,,
Mg B 2,{},"{'Mg': 1, 'B': 2}",40.0,0.0,,,10.1016/s0921-4534(01)00399-9
Ce Rh Ge 3,{},"{'Ce': 1, 'Rh': 1, 'Ge': 3}",1.3,21.5,,,10.1103/physrevb.97.064514
Ta 4 Pd 3 Te 16,{},"{'Ta': 4, 'Pd': 3, 'Te': 16}",4.6,0.0,,,10.1088/0953-8984/27/33/335701
Mo 3 Sb 7,{},"{'Mo': 3, 'Sb': 7}",2.1,0.0,,,10.1103/physrevb.94.224508
Mg B 2,{},"{'Mg': 1, 'B': 2}",39.0,0.0,,,10.1103/physrevb.71.054501
Mg (B 1-x C x) 2,{'x': [0.132]},"{'Mg': 1, 'B': 1.736, 'C': 0.264}",19.0,0.0,single crystals,,10.1007/s10948-005-0058-2
Ce Ag 2 Si 2,{},"{'Ce': 1, 'Ag': 2, 'Si': 2}",1.25,3.0,,,10.1016/j.physb.2017.09.120
Ce Cu 2 Si 2,{},"{'Ce': 1, 'Cu': 2, 'Si': 2}",2.5,0.0,,,10.1016/j.physb.2017.09.120
Ce Ag 2 Si 2,{},"{'Ce': 1, 'Ag': 2, 'Si': 2}",1.25,16.0,crystals,,10.1016/j.physb.2017.09.120
Ce Ag 2 Si 2,{},"{'Ce': 1, 'Ag': 2, 'Si': 2}",1.25,0.0,,,10.1016/j.physb.2017.09.120
La Fe As O 1-x F x,{'x': []},,26.0,0.0,,,10.1088/0953-2048/24/7/075025
K,{},{'K': 1},30.0,0.0,,,10.1088/0953-2048/24/7/075025
Al,{},{'Al': 1},1.19,0.0,,,10.1142/s0217984902004548
Mg B 2,{},"{'Mg': 1, 'B': 2}",39.0,0.0,,,10.1103/physrevb.70.014519
Si C,{},"{'Si': 1, 'C': 1}",1.45,0.0,,,10.1103/physrevb.78.024517
Mg B 2,{},"{'Mg': 1, 'B': 2}",6.0,0.0,,,10.1016/j.physc.2004.11.022
Mg B 2,{},"{'Mg': 1, 'B': 2}",2.0,0.0,,,10.1016/j.physc.2004.11.022
Si 3 N 4,{},"{'Si': 3, 'N': 4}",1.4,0.0,,,10.1103/physrevb.85.045415
Li 2 S,{},"{'Li': 2, 'S': 1}",33.8,0.0,,,
Y Ba 2 Cu 3 O 7,{},"{'Y': 1, 'Ba': 2, 'Cu': 3, 'O': 7}",52.0,0.0,,,10.1007/s10909-006-9210-z
Y Ba Cu O,{},"{'Y': 1, 'Ba': 1, 'Cu': 1, 'O': 1}",41.0,0.0,,,10.1007/s10909-006-9210-z
Y Ba Cu O,{},"{'Y': 1, 'Ba': 1, 'Cu': 1, 'O': 1}",62.5,0.0,,,10.1007/s10909-006-9210-z
Y Ba 2 Cu 3 O 7,{},"{'Y': 1, 'Ba': 2, 'Cu': 3, 'O': 7}",41.0,0.0,,,10.1007/s10909-006-9210-z
Y Ba 2 Cu 3 O 7,{},"{'Y': 1, 'Ba': 2, 'Cu': 3, 'O': 7}",92.0,0.0,,,10.1007/s10909-006-9210-z
Ba 2 Rh O 4,{},"{'Ba': 2, 'Rh': 1, 'O': 4}",0.16,0.0,,,
Y Ba 2 Cu 3 O 7,{},"{'Y': 1, 'Ba': 2, 'Cu': 3, 'O': 7}",59.0,0.0,,,10.1103/physrevb.73.014508
Ca Cu 2 O 3,{},"{'Ca': 1, 'Cu': 2, 'O': 3}",14.0,0.0,,,10.1103/physrevb.67.184517
Fe Se,{},"{'Fe': 1, 'Se': 1}",90.0,0.0,,,10.1038/s41535-017-0036-5
Mg B 2,{},"{'Mg': 1, 'B': 2}",39.0,0.0,,,10.1103/physrevb.69.054508
Fe Se,{},"{'Fe': 1, 'Se': 1}",8.5,0.0,,,10.1103/physrevb.96.180502
U Co Ge,{},"{'U': 1, 'Co': 1, 'Ge': 1}",40.0,0.0,,,10.1103/physrevb.93.134516
Fe Se,{},"{'Fe': 1, 'Se': 1}",2.0,0.0,,,10.1063/1.3673826
Fe Se,{},"{'Fe': 1, 'Se': 1}",10.5,0.0,,,10.1063/1.3673826
Fe Se,{},"{'Fe': 1, 'Se': 1}",8.0,0.0,,,10.1063/1.3673826
Y Ba 2 Cu 3 O 7,{},"{'Y': 1, 'Ba': 2, 'Cu': 3, 'O': 7}",61.0,0.0,,,10.1088/1367-2630/17/2/022001
Bi 2 Sr 2 Ca Cu 2 O 8,{},"{'Bi': 2, 'Sr': 2, 'Ca': 1, 'Cu': 2, 'O': 8}",90.0,0.0,,,10.1088/1367-2630/17/2/022001
Ho Ni 2 B 2 C,{},"{'Ho': 1, 'Ni': 2, 'B': 2, 'C': 1}",8.5,0.0,,,10.1016/s0921-4534(00)00226-4
Ca 1-y La y (Fe 0.973 Ru 0.027) 2 As 2,{'y': [0.06]},"{'Ca': 0.94, 'La': 0.06, 'Fe': 1.946, 'Ru': 0.054, 'As': 2}",41.0,0.0,single crystalline,,10.1103/physrevb.92.235132
La O 1-x F x Fe As,{'x': []},,26.0,0.0,,,10.1103/physrevb.92.235132
Ba 1-x La x Fe 2 As 2,{'x': []},,20.0,0.0,epitaxial thin films,,10.1103/physrevb.92.235132
Ca 1-x La x Fe 2 As 2,{'x': [0.023]},"{'Ca': 0.977, 'La': 0.023, 'Fe': 2, 'As': 2}",40.0,0.0,,,10.1103/physrevb.92.235132
Fe Se,{},"{'Fe': 1, 'Se': 1}",37.0,0.0,,,
K x Fe 1.7 Se 2,{'x': []},,30.0,0.0,,,
Dy Mo 6 S 8,{},"{'Dy': 1, 'Mo': 6, 'S': 8}",1.6,0.0,,,10.1016/s0921-4534(02)01833-6
Mg B 2,{},"{'Mg': 1, 'B': 2}",39.0,0.0,,,10.1016/j.physc.2009.09.010
Ti Se 2,{},"{'Ti': 1, 'Se': 2}",4.0,0.0,,,10.1103/physrevb.82.024503
Mg B 2,{},"{'Mg': 1, 'B': 2}",5.0,0.0,,,10.1103/physrevb.66.140514
Mg B 2,{},"{'Mg': 1, 'B': 2}",40.0,0.0,,,10.1103/physrevb.66.140514
Li Fe As,{},"{'Li': 1, 'Fe': 1, 'As': 1}",18.0,0.0,,,10.1103/physrevb.94.224518
Li Fe As,{},"{'Li': 1, 'Fe': 1, 'As': 1}",17.0,0.0,,,10.1103/physrevb.94.224518
Ca 1-x La x Fe (As 1-y Sb y) 2,"{'x': [0.12], 'y': [0.1, 0.0]}","{'Ca': 0.88, 'La': 0.12, 'Fe': 1, 'As': 1.8, 'Sb': 0.2}",47.0,0.0,,,10.7566/jpsj.83.093705
Eu,{},{'Eu': 1},35.0,0.0,,,10.7566/jpsj.83.093705
Ca 1-x La x Fe As 2,{'x': [0.15]},"{'Ca': 0.85, 'La': 0.15, 'Fe': 1, 'As': 2}",35.0,0.0,,,10.7566/jpsj.83.093705
Ca Fe As 2,{},"{'Ca': 1, 'Fe': 1, 'As': 2}",47.0,0.0,,,10.7566/jpsj.83.093705
Bi 2 Te,{},"{'Bi': 2, 'Te': 1}",11.5,0.0,,,10.1038/ncomms5247
Fe Te,{},"{'Fe': 1, 'Te': 1}",2.0,0.0,film,,10.1038/ncomms5247
Fe Te,{},"{'Fe': 1, 'Te': 1}",11.1,0.0,,,10.1038/ncomms5247
Ba 2 Cu 3 O 7,{},"{'Ba': 2, 'Cu': 3, 'O': 7}",90.0,0.0,,,
Y Ba 2 Cu 3 O 6.67,{},"{'Y': 1, 'Ba': 2, 'Cu': 3, 'O': 6.67}",60.0,0.0,,,
Y Ba 2 Cu 3 O 7-δ,{'δ': []},,60.0,0.0,,,
Bi 2 Sr 2 Ca Cu 2 O 8+δ,{'δ': []},,60.0,0.0,,,
Y Ba 2 Cu 3 O 7,{},"{'Y': 1, 'Ba': 2, 'Cu': 3, 'O': 7}",90.0,0.0,,,
U Ru 2 Si 2,{},"{'U': 1, 'Ru': 2, 'Si': 2}",1.2,0.0,,,10.1103/physrevlett.90.096402
Nb Se 2,{},"{'Nb': 1, 'Se': 2}",7.2,0.0,single crystal,,
La 3 N 3 Ni 2 B 2,{},"{'La': 3, 'N': 3, 'Ni': 2, 'B': 2}",13.0,0.0,,,
Ba Cu S 2,{},"{'Ba': 1, 'Cu': 1, 'S': 2}",13.0,0.0,,,
Ba Cu S 2,{},"{'Ba': 1, 'Cu': 1, 'S': 2}",4.0,0.0,,,
La Ni B N,{},"{'La': 1, 'Ni': 1, 'B': 1, 'N': 1}",4.1,0.0,,,
La 4 Ni 3 O 8,{},"{'La': 4, 'Ni': 3, 'O': 8}",105.0,0.0,,,10.1103/physrevlett.104.206403
Fe 2 V Al,{},"{'Fe': 2, 'V': 1, 'Al': 1}",13.0,0.0,,,
Fe 2.05 V 0.95 Al,{},"{'Fe': 2.05, 'V': 0.95, 'Al': 1}",15.0,0.0,,,
Fe 2+x V 1-x Al,{'x': []},,13.0,0.0,,,
Pr 0.88 La Ce 0.12 Cu O 4+δ,{'δ': []},,24.0,0.0,,,10.1103/physrevb.82.172505
Pr 0.88 La Ce 0.12 Cu O 4,{},"{'Pr': 0.88, 'La': 1, 'Ce': 0.12, 'Cu': 1, 'O': 4}",24.0,0.0,,,10.1103/physrevb.82.172505
Bi 2 Sr 2 Ca Cu 2 O 8,{},"{'Bi': 2, 'Sr': 2, 'Ca': 1, 'Cu': 2, 'O': 8}",66.0,0.0,single crystals,,10.1103/physrevb.74.064510
Bi 2 Sr 2 Ca Cu 2 O 8,{},"{'Bi': 2, 'Sr': 2, 'Ca': 1, 'Cu': 2, 'O': 8}",67.0,0.0,,,10.1103/physrevb.74.064510
Bi 2 Sr 2 Ca Cu 2 O 8,{},"{'Bi': 2, 'Sr': 2, 'Ca': 1, 'Cu': 2, 'O': 8}",77.0,0.0,,,10.1103/physrevb.74.064510
Fe Se,{},"{'Fe': 1, 'Se': 1}",8.0,0.0,,,10.7567/apex.11.053101
Fe Se,{},"{'Fe': 1, 'Se': 1}",43.0,0.0,single crystal,,10.7567/apex.11.053101
H 3 S,{},"{'H': 3, 'S': 1}",280.0,250.0,,,10.7567/apex.11.053101
Fe Se,{},"{'Fe': 1, 'Se': 1}",37.0,0.0,,,10.7567/apex.11.053101
Fe Se,{},"{'Fe': 1, 'Se': 1}",43.0,0.0,,,10.7567/apex.11.053101
Fe Se,{},"{'Fe': 1, 'Se': 1}",100.0,0.0,thin film,,10.7567/apex.11.053101
Hg Ba 2 Cu O 4+δ,{'δ': []},,88.0,0.0,,,10.1103/physrevlett.117.277002
Hg Ba 2 Cu O 6,{},"{'Hg': 1, 'Ba': 2, 'Cu': 1, 'O': 6}",70.0,0.0,,,10.1103/physrevlett.117.277002
Hg Ba 2 Cu O 6,{},"{'Hg': 1, 'Ba': 2, 'Cu': 1, 'O': 6}",88.0,0.0,,,10.1103/physrevlett.117.277002
K 2 Cr 3 As 3,{},"{'K': 2, 'Cr': 3, 'As': 3}",6.1,0.0,,,10.1103/physrevmaterials.2.034803
Cr As,{},"{'Cr': 1, 'As': 1}",2.0,0.0,,,10.1103/physrevmaterials.2.034803
Na 2 Cr 3 As 3,{},"{'Na': 2, 'Cr': 3, 'As': 3}",8.6,0.0,,,10.1103/physrevmaterials.2.034803
La O 1-x F x Fe As,{'x': []},,26.0,0.0,,,10.1103/physrevmaterials.2.034803
Na 2 Cr 3 As 3,{},"{'Na': 2, 'Cr': 3, 'As': 3}",1.8,0.0,crystal,,10.1103/physrevmaterials.2.034803
K 2 Cr 3 As 3,{},"{'K': 2, 'Cr': 3, 'As': 3}",8.6,0.0,,,10.1103/physrevmaterials.2.034803
Mg C Ni 3,{},"{'Mg': 1, 'C': 1, 'Ni': 3}",23.0,0.0,,,10.1103/physrevb.64.180510
Mg C Ni 3,{},"{'Mg': 1, 'C': 1, 'Ni': 3}",8.0,0.0,,,10.1103/physrevb.64.180510
Sr 0.6 K 0.4 Fe 2 As 2,{},"{'Sr': 0.6, 'K': 0.4, 'Fe': 2, 'As': 2}",30.0,0.0,,,
Gd 1-x Th x O Fe As,{'x': []},,56.5,0.0,,,
La O Fe As,{},"{'La': 1, 'O': 1, 'Fe': 1, 'As': 1}",27.0,4.0,,,
Ca 0.6 Na 0.4 Fe 2 As 2,{},"{'Ca': 0.6, 'Na': 0.4, 'Fe': 2, 'As': 2}",18.0,0.0,,,
H 2 S,{},"{'H': 2, 'S': 1}",190.0,150.0,,,10.1039/c6cp08036g
Al (Be),{},"{'Al': 1, 'Be': 1}",2.7,0.0,films,,10.1103/physrevlett.92.067003
Ce Rh In 5,{},"{'Ce': 1, 'Rh': 1, 'In': 5}",2.1,0.0,,,10.1103/physrevb.67.104518
Pu Co Ga 5,{},"{'Pu': 1, 'Co': 1, 'Ga': 5}",18.5,0.0,,,10.1103/physrevb.67.104518
Ce Ir In 5,{},"{'Ce': 1, 'Ir': 1, 'In': 5}",0.4,0.0,,,10.1103/physrevb.67.104518
Ce Co In 5,{},"{'Ce': 1, 'Co': 1, 'In': 5}",2.3,0.0,,,10.1103/physrevb.67.104518
Pr Os 4 Sb 12,{},"{'Pr': 1, 'Os': 4, 'Sb': 12}",1.85,0.0,,,10.1103/physrevb.67.104518
Cs V 3 Sb 5,{},"{'Cs': 1, 'V': 3, 'Sb': 5}",0.93,0.0,,,
K V 3 Sb 5,{},"{'K': 1, 'V': 3, 'Sb': 5}",2.5,0.0,,,
Rb V 3 Sb 5,{},"{'Rb': 1, 'V': 3, 'Sb': 5}",0.92,0.0,,,
Pr 0.88 La Ce 0.12 Cu O 4,{},"{'Pr': 0.88, 'La': 1, 'Ce': 0.12, 'Cu': 1, 'O': 4}",21.0,0.0,,,10.1002/9781119234531.ch25
Y 0.85 Ca 0.15 Ba 2 Cu 3 O 7,{},"{'Y': 0.85, 'Ca': 0.15, 'Ba': 2, 'Cu': 3, 'O': 7}",75.0,0.0,,,10.1002/9781119234531.ch25
La 1.84 Sr 0.16 Cu O 4,{},"{'La': 1.84, 'Sr': 0.16, 'Cu': 1, 'O': 4}",21.0,0.0,,,10.1002/9781119234531.ch25
Y Pt Bi,{},"{'Y': 1, 'Pt': 1, 'Bi': 1}",0.01,0.0,,,10.1103/physrevresearch.2.013230
Pr 2 Ir 2 O 7,{},"{'Pr': 2, 'Ir': 2, 'O': 7}",40.0,0.0,,,10.1103/physrevresearch.2.013230
Nb O,{},"{'Nb': 1, 'O': 1}",1.38,0.0,,,
La Fe P O 0.9,{},"{'La': 1, 'Fe': 1, 'P': 1, 'O': 0.9}",5.0,0.0,,,10.1038/s41598-018-33878-x
Pr Fe As O,{},"{'Pr': 1, 'Fe': 1, 'As': 1, 'O': 1}",41.0,0.0,,,10.1103/physrevb.83.212505
Sr 2 Ru O 4,{},"{'Sr': 2, 'Ru': 1, 'O': 4}",1.3,0.0,film,,10.1103/physrevb.99.161111
Y Ba 2 Cu 3 O 6+δ,{'δ': []},,90.0,0.0,,,10.1016/j.physc.2009.12.027
Sb,{},{'Sb': 1},10.0,0.0,monolayer,,10.1103/physrevb.99.064513
Mo S 2,{},"{'Mo': 1, 'S': 2}",3.0,0.0,,,10.1103/physrevb.99.064513
Fe Se,{},"{'Fe': 1, 'Se': 1}",65.0,0.0,,SrTiO 3 (STO) substrate,
Fe Se 1-x Te x,{'x': [0.61]},"{'Fe': 1, 'Se': 0.39, 'Te': 0.61}",14.0,0.0,,,10.1103/physrevb.88.155124
Fe Se 0.4 Te 0.6,{},"{'Fe': 1, 'Se': 0.4, 'Te': 0.6}",14.0,0.0,,,10.1103/physrevb.88.155124
Li C 2,{},"{'Li': 1, 'C': 2}",1.9,0.0,,,10.1016/b978-0-44-453153-7.00131-0
K C 8,{},"{'K': 1, 'C': 8}",0.15,0.0,,,10.1016/b978-0-44-453153-7.00131-0
Be C 2,{},"{'Be': 1, 'C': 2}",10.0,0.0,,,10.1016/b978-0-44-453153-7.00131-0
K Hg C 8,{},"{'K': 1, 'Hg': 1, 'C': 8}",1.9,0.0,,,10.1016/b978-0-44-453153-7.00131-0
Ca C 6,{},"{'Ca': 1, 'C': 6}",15.4,0.0,,,10.1016/b978-0-44-453153-7.00131-0
Ca C 6,{},"{'Ca': 1, 'C': 6}",11.5,0.0,,,10.1016/b978-0-44-453153-7.00131-0
Rb C 8,{},"{'Rb': 1, 'C': 8}",0.09,0.0,,,10.1016/b978-0-44-453153-7.00131-0
Mg B 2,{},"{'Mg': 1, 'B': 2}",39.0,0.0,,,10.1016/b978-0-44-453153-7.00131-0
Cs C 8,{},"{'Cs': 1, 'C': 8}",0.06,0.0,,,10.1016/b978-0-44-453153-7.00131-0
Na C 2,{},"{'Na': 1, 'C': 2}",5.0,0.0,,,10.1016/b978-0-44-453153-7.00131-0