Material,Substitutions,Composition,Tc (K),Pressure (GPa),Shape,Substrate,DOI
Ca 3 Rh 4 Sn 13,{},"{'Ca': 3, 'Rh': 4, 'Sn': 13}",7.8,0.0,,,10.1103/physrevlett.114.097002
Sr 3 Rh 4 Sn 13,{},"{'Sr': 3, 'Rh': 4, 'Sn': 13}",4.7,0.0,,,10.1103/physrevlett.114.097002
Ru Sr 2 Gd Cu 2 O 8,{},"{'Ru': 1, 'Sr': 2, 'Gd': 1, 'Cu': 2, 'O': 8}",50.0,0.0,,,
La 1-x Sr x Fe As O,{'x': []},,25.0,0.0,,,10.1103/physrevb.78.180503
Ca Fe As H,{},"{'Ca': 1, 'Fe': 1, 'As': 1, 'H': 1}",96.0,0.0,,,10.1039/c8dt02387e
Ba Fe 2-x Co x As 2,{'x': []},,23.0,0.0,,,10.1209/0295-5075/90/37005
Fe Se,{},"{'Fe': 1, 'Se': 1}",8.9,0.0,,,10.1103/physrevb.96.024511
Fe Se,{},"{'Fe': 1, 'Se': 1}",37.0,7.0,,,10.1103/physrevb.80.064506
Cs 3 C 60,{},"{'Cs': 3, 'C': 60}",39.0,7.6,,,10.1103/physrevb.80.064506
Mg B 2,{},"{'Mg': 1, 'B': 2}",39.0,7.6,,,10.1103/physrevb.80.064506
Mg B 2,{},"{'Mg': 1, 'B': 2}",6.0,13.9,,,10.1103/physrevb.80.064506
Fe Se,{},"{'Fe': 1, 'Se': 1}",27.0,1.48,,,10.1103/physrevb.80.064506
Sr 2 Ru O 4,{},"{'Sr': 2, 'Ru': 1, 'O': 4}",1.44,0.0,,,
Na 0.5 Co O 2,{},"{'Na': 0.5, 'Co': 1, 'O': 2}",53.0,0.0,,,
Hg Ba 2 Cu O 4+δ,{'δ': []},,97.0,0.0,,,10.1088/0953-8984/15/50/014
Hg Ba 2 Ca 2 Cu 3 O 8+δ,{'δ': []},,136.0,0.0,,,10.1088/0953-8984/15/50/014
La 1-x Ca x Mn O 3,{'x': [0.2]},"{'La': 0.8, 'Ca': 0.2, 'Mn': 1, 'O': 3}",17.7,0.0,,,10.1103/physrevb.65.104419
Bi 2 Sr 2 Ca Cu 2 O 8,{},"{'Bi': 2, 'Sr': 2, 'Ca': 1, 'Cu': 2, 'O': 8}",89.0,0.0,,,10.1007/0-306-48063-8
Bi 2 Sr 2 Ca Cu 2 O 8,{},"{'Bi': 2, 'Sr': 2, 'Ca': 1, 'Cu': 2, 'O': 8}",89.0,0.0,single crystals,,10.1007/0-306-48063-8
Er Ni 2 B 2 C,{},"{'Er': 1, 'Ni': 2, 'B': 2, 'C': 1}",11.0,0.0,,,10.1103/physrevb.72.214505
Er Ni 2 B 2 C,{},"{'Er': 1, 'Ni': 2, 'B': 2, 'C': 1}",10.1,0.0,,,10.1103/physrevb.72.214505
Y Ni 2 B 2 C,{},"{'Y': 1, 'Ni': 2, 'B': 2, 'C': 1}",15.5,0.0,,,10.1103/physrevb.72.214505
Er Ni 2 B 2 C,{},"{'Er': 1, 'Ni': 2, 'B': 2, 'C': 1}",4.0,0.0,single-crystal,,10.1103/physrevb.72.214505
Zr Zn 2,{},"{'Zr': 1, 'Zn': 2}",1.0,0.0,,,10.1103/physrevb.67.024515
Y Ba Cu O,{},"{'Y': 1, 'Ba': 1, 'Cu': 1, 'O': 1}",84.9,0.0,,,10.1088/1742-6596/350/1/012026
Sn,{},{'Sn': 1},3.72,0.0,,,10.1088/1742-6596/350/1/012026
La O 0.5 F 0.5 Bi S 2,{},"{'La': 1, 'O': 0.5, 'F': 0.5, 'Bi': 1, 'S': 2}",10.0,1.0,,,10.1103/physrevb.97.104509
C 2,{},{'C': 2},2.84,0.0,,,10.1103/physrevb.97.104509
C,{},{'C': 1},3.7,0.0,,,10.1103/physrevb.97.104509
La O 0.5 F 0.5 Bi S 2,{},"{'La': 1, 'O': 0.5, 'F': 0.5, 'Bi': 1, 'S': 2}",3.0,0.0,,,10.1103/physrevb.97.104509
Ce Ir In 5,{},"{'Ce': 1, 'Ir': 1, 'In': 5}",1.0,0.0,,,
Ce Rh In 5,{},"{'Ce': 1, 'Rh': 1, 'In': 5}",2.1,17.0,,,
Eu 0.2 Sr 0.8 (Fe 0.86 Co 0.14) 2 As 2,{},"{'Eu': 0.2, 'Sr': 0.8, 'Fe': 1.72, 'Co': 0.28, 'As': 2}",20.0,0.0,single crystals,,
Y 3 Ba 5 Cu 8 O 7,{},"{'Y': 3, 'Ba': 5, 'Cu': 8, 'O': 7}",94.0,0.0,,,10.1007/s10948-012-1611-4
Y 3 Ba 5 Cu 8 O 7,{},"{'Y': 3, 'Ba': 5, 'Cu': 8, 'O': 7}",105.0,0.0,,,10.1007/s10948-012-1611-4
Y Ba 2 Cu 3 O 7,{},"{'Y': 1, 'Ba': 2, 'Cu': 3, 'O': 7}",94.0,0.0,,,10.1007/s10948-012-1611-4
Y 3 Ba 5 Cu 8 O 7,{},"{'Y': 3, 'Ba': 5, 'Cu': 8, 'O': 7}",100.0,0.0,,,10.1007/s10948-012-1611-4
Bi 2 Sr 2 Ca (Cu 1-x Zn x) 2 O 8+δ,"{'δ': [], 'x': []}",,87.0,0.0,single crystal,,10.1007/s10948-010-0976-5
La 2 Cu O 4,{},"{'La': 2, 'Cu': 1, 'O': 4}",40.0,0.0,,,10.1209/0295-5075/100/37001
Mg B 2,{},"{'Mg': 1, 'B': 2}",30.0,0.0,thin films,,10.1088/0953-2048/15/8/312
Mg B 2,{},"{'Mg': 1, 'B': 2}",40.0,0.0,,,10.1088/0953-2048/15/8/312
Bi 2 Sr 2 Ca Cu 2 O 8,{},"{'Bi': 2, 'Sr': 2, 'Ca': 1, 'Cu': 2, 'O': 8}",69.0,0.0,single crystals,,
H 3 S,{},"{'H': 3, 'S': 1}",203.0,155.0,,,10.1016/j.jpcs.2018.08.020
H 3 S,{},"{'H': 3, 'S': 1}",193.0,172.0,,,10.1016/j.jpcs.2018.08.020
V 3 Si Nb 3 Ge,{},"{'V': 3, 'Si': 1, 'Nb': 3, 'Ge': 1}",20.0,0.0,,,10.1103/physrevb.93.104526
H 3 S,{},"{'H': 3, 'S': 1}",200.0,200.0,,,10.1103/physrevb.93.104526
H 2 S,{},"{'H': 2, 'S': 1}",200.0,200.0,,,10.1103/physrevb.93.104526
H 2 S,{},"{'H': 2, 'S': 1}",80.0,0.0,,,10.1103/physrevb.93.104526
U Pt 3,{},"{'U': 1, 'Pt': 3}",0.5,0.0,,,10.1103/physrevlett.88.186404
La O 1-x F x Fe As,{'x': []},,26.0,0.0,,,10.1063/1.3236671
La O Fe As,{},"{'La': 1, 'O': 1, 'Fe': 1, 'As': 1}",20.0,12.0,crystal,,10.1063/1.3236671
Ba Fe 1.87 Co 0.13 As 2,{},"{'Ba': 1, 'Fe': 1.87, 'Co': 0.13, 'As': 2}",25.0,0.0,,,10.1016/j.ssc.2011.12.047
Fe Se,{},"{'Fe': 1, 'Se': 1}",90.0,0.0,,,10.1016/j.aop.2019.03.024
K Fe 2 As 2,{},"{'K': 1, 'Fe': 2, 'As': 2}",4.0,0.0,,,10.1016/j.jpcs.2010.10.064
Bi 2 Sr 2 Ca Cu 8+y,{'y': []},,90.0,0.0,,,
Bi 2 Sr 2 Cu O 6,{},"{'Bi': 2, 'Sr': 2, 'Cu': 1, 'O': 6}",8.0,0.0,,,
Hg Ba 2 Ca 2 Cu 3 O 8+y,{'y': []},,130.0,0.0,,,
Hg Ba 2 Ca 2 Cu 3 O 8+y,{'y': []},,121.0,0.0,,,
Y Ba 2 Cu 6 O y,{'y': []},,92.0,0.0,,,10.1103/physrevb.98.014515
La 2-x Sr x Cu O 4,{'x': []},,18.0,0.0,films,,10.1103/physrevb.98.014515
Y Ba 2 Cu 3 O 6.92,{},"{'Y': 1, 'Ba': 2, 'Cu': 3, 'O': 6.92}",91.0,0.0,,,10.1007/s10948-006-0159-6
Y Ba 2 Cu 3 O 7-x,{'x': []},,60.0,0.0,,,10.1007/s10948-006-0159-6
Ba x K 1-x Bi O 3,{'x': []},,30.0,0.0,,,10.1007/s10948-006-0159-6
Y Ba 2 Cu 3 O 6+x,{'x': []},,92.0,0.0,,,10.1007/s10948-006-0159-6
Y Ba 2 Cu 3 O 6.97,{},"{'Y': 1, 'Ba': 2, 'Cu': 3, 'O': 6.97}",92.5,0.0,,,10.1007/s10948-006-0159-6
Y Ba 2 Cu 3 O 7,{},"{'Y': 1, 'Ba': 2, 'Cu': 3, 'O': 7}",90.0,0.0,,,10.1007/s10948-006-0159-6
Mg B 2,{},"{'Mg': 1, 'B': 2}",39.0,0.0,,,10.1103/physrevb.77.174516
K Os 2 O 6,{},"{'K': 1, 'Os': 2, 'O': 6}",9.6,0.0,,,10.1143/jpsj.81.124707
Al,{},{'Al': 1},0.05,0.0,,,10.1143/jpsj.81.124707
(Ga 0.05 Al 0.25) V 2 Al 20,{},"{'Ga': 0.05, 'Al': 20.25, 'V': 2}",1.74,0.0,,,10.1143/jpsj.81.124707
Ga 0.2 V 2 Al 20,{},"{'Ga': 0.2, 'V': 2, 'Al': 20}",1.65,0.0,,,10.1143/jpsj.81.124707
U Pt 3,{},"{'U': 1, 'Pt': 3}",1.75,0.0,,,10.1103/physrevb.68.184506
Ba 0.75 K 0.25 Fe 2 As 2,{},"{'Ba': 0.75, 'K': 0.25, 'Fe': 2, 'As': 2}",28.0,0.0,single crystal,,10.1103/physrevb.95.134509
Ba 1-x K x Fe 2 As 2,{'x': [0.25]},"{'Ba': 0.75, 'K': 0.25, 'Fe': 2, 'As': 2}",28.0,0.0,single crystal,,10.1103/physrevb.95.134509
Mg B 2,{},"{'Mg': 1, 'B': 2}",40.0,0.0,,,10.1103/physrevlett.93.237005
Li 0.9 Mo 6 O 17,{},"{'Li': 0.9, 'Mo': 6, 'O': 17}",2.2,0.0,,,
Li Fe As,{},"{'Li': 1, 'Fe': 1, 'As': 1}",18.0,0.0,,,10.1103/physrevb.83.134513
Fe As,{},"{'Fe': 1, 'As': 1}",50.0,0.0,,,10.1143/jpsj.77.123707
La 1.85 Sr 0.15 Cu O 4,{},"{'La': 1.85, 'Sr': 0.15, 'Cu': 1, 'O': 4}",45.0,0.0,,,10.1103/physrevb.75.132501
Ba Fe 2 As 2,{},"{'Ba': 1, 'Fe': 2, 'As': 2}",2.0,0.0,,,
Ba Fe 2 As 2,{},"{'Ba': 1, 'Fe': 2, 'As': 2}",34.0,1.0,,,
Ba (Fe 1-x Cu x) 2 As 2,{'x': []},,2.0,0.0,,,
Ba Fe 2 As 2,{},"{'Ba': 1, 'Fe': 2, 'As': 2}",38.0,0.0,,,
Ba Fe 2 As 2,{},"{'Ba': 1, 'Fe': 2, 'As': 2}",25.0,0.0,,,
Fe Se,{},"{'Fe': 1, 'Se': 1}",8.0,0.0,,,10.1103/physrevx.4.031053
Fe Se,{},"{'Fe': 1, 'Se': 1}",65.0,0.0,,,10.1103/physrevx.4.031053
Ca K Fe 4 As 4,{},"{'Ca': 1, 'K': 1, 'Fe': 4, 'As': 4}",35.0,0.0,,,10.1103/physrevlett.117.277001
Ca K Fe 4 As 4,{},"{'Ca': 1, 'K': 1, 'Fe': 4, 'As': 4}",35.0,0.0,,,10.1103/physrevb.98.104503
Eu Fe 2 (As 1-x P x) 2,{'x': []},,30.0,0.0,,,10.1103/physrevb.98.104503
(La Na) (Cs Rb) Fe 4 As 4,{},"{'La': 1, 'Na': 1, 'Cs': 1, 'Rb': 1, 'Fe': 4, 'As': 4}",25.0,0.0,,,10.1103/physrevb.98.104503
Eu (Fe 1-x Ir x) 2 As 2,{'x': []},,1.6,0.0,,,10.1103/physrevb.98.104503
Cd 3 As 2,{},"{'Cd': 3, 'As': 2}",6.0,0.0,,,
Si,{},{'Si': 1},6.7,11.0,,,
Ge,{},{'Ge': 1},0.45,0.0,,,
Mo S 2,{},"{'Mo': 1, 'S': 2}",6.0,0.0,,,10.1103/physrevb.87.144105
La Fe P O,{},"{'La': 1, 'Fe': 1, 'P': 1, 'O': 1}",6.0,0.0,,,10.1103/physrevb.100.094509
Li Fe P,{},"{'Li': 1, 'Fe': 1, 'P': 1}",5.0,0.0,,,10.1103/physrevb.100.094509
Fe 2 P 2,{},"{'Fe': 2, 'P': 2}",17.0,0.0,,,10.1103/physrevb.100.094509
Rh 17 S 15,{},"{'Rh': 17, 'S': 15}",5.4,0.0,,,10.1016/s0921-4534(97)01467-6
C,{},{'C': 1},50.0,0.0,,,10.1103/physrevb.66.014503
C 3,{},{'C': 3},17.0,0.0,,,10.1103/physrevb.66.014503
C 2,{},{'C': 2},15.0,0.0,,,10.1103/physrevb.66.014503
Fe Se,{},"{'Fe': 1, 'Se': 1}",8.5,0.0,,,10.1140/epjb/e2010-00254-7
Li,{},{'Li': 1},14.0,30.0,,,10.1103/physrevb.100.041109
Li,{},{'Li': 1},0.4,0.0,,,10.1103/physrevb.100.041109
La 1.8 Eu 0.2 Cu O 4+α-δ,"{'δ': [], 'α': []}",,20.0,0.0,,,
Mg B 2,{},"{'Mg': 1, 'B': 2}",39.0,0.0,,,10.1103/physrevlett.100.097002
Y 2 C 3,{},"{'Y': 2, 'C': 3}",15.7,0.0,,,10.1103/physrevlett.100.097002
Y 2 C 3,{},"{'Y': 2, 'C': 3}",18.0,0.0,,,10.1103/physrevlett.100.097002
La 2 C 3,{},"{'La': 2, 'C': 3}",11.0,0.0,,,10.1103/physrevlett.100.097002
La 2 C 3,{},"{'La': 2, 'C': 3}",13.4,0.0,,,10.1103/physrevlett.100.097002
Y 2 C 3,{},"{'Y': 2, 'C': 3}",15.0,0.0,,,10.1103/physrevlett.100.097002
Tl 2 Ba 2 Cu O 6+δ,{'δ': []},,15.0,0.0,,,10.1103/physrevb.67.144509
Ba Ir 2 As 2,{},"{'Ba': 1, 'Ir': 2, 'As': 2}",2.45,0.0,,,10.1103/physrevmaterials.1.064801
Ba Ni 2 P 2,{},"{'Ba': 1, 'Ni': 2, 'P': 2}",3.0,0.0,,,10.1103/physrevmaterials.1.064801
Sr Pt 3 P,{},"{'Sr': 1, 'Pt': 3, 'P': 1}",8.4,0.0,,,10.1103/physrevmaterials.1.064801
Sr Pt 6 P 2,{},"{'Sr': 1, 'Pt': 6, 'P': 2}",0.6,0.0,,,10.1103/physrevmaterials.1.064801
Sr Pt As,{},"{'Sr': 1, 'Pt': 1, 'As': 1}",2.4,0.0,,,10.1103/physrevmaterials.1.064801
Sr Pt 10 P 4,{},"{'Sr': 1, 'Pt': 10, 'P': 4}",1.4,0.0,,,10.1103/physrevmaterials.1.064801
Ba Pt 2 Sb 2,{},"{'Ba': 1, 'Pt': 2, 'Sb': 2}",1.8,0.0,,,10.1103/physrevmaterials.1.064801
Sr Pt 2 As 2,{},"{'Sr': 1, 'Pt': 2, 'As': 2}",5.2,0.0,,,10.1103/physrevmaterials.1.064801
Ba Ni 2 As 2,{},"{'Ba': 1, 'Ni': 2, 'As': 2}",0.7,0.0,,,10.1103/physrevmaterials.1.064801
K Fe 2 As 2,{},"{'K': 1, 'Fe': 2, 'As': 2}",3.4,0.0,,,10.1103/physrevlett.111.057007
Fe 1-x Se H 9,{'x': []},,9.0,0.0,,,
(Li Fe) O H Fe 1-x Se,{'x': []},,42.0,0.0,,,
C 8.6,{},{'C': 8.6},7.2,0.0,,,
H 7.2,{},{'H': 7.2},26.0,0.0,,,
H 9 H 7.2,{},{'H': 16.2},9.0,0.0,,,
Ba Mn 2 As 2,{},"{'Ba': 1, 'Mn': 2, 'As': 2}",2.0,0.0,,,10.1103/physrevlett.111.047001
Ba 0.6 K 0.4 Mn 2 As 2,{},"{'Ba': 0.6, 'K': 0.4, 'Mn': 2, 'As': 2}",100.0,0.0,crystals,,10.1103/physrevlett.111.047001
Y Ba 2 Cu 3 O 7,{},"{'Y': 1, 'Ba': 2, 'Cu': 3, 'O': 7}",90.0,0.0,films,,10.1103/physrevlett.91.197001
Fe Se,{},"{'Fe': 1, 'Se': 1}",8.0,0.0,,,10.1088/0256-307x/36/10/107404
Bi (Pb),{},"{'Bi': 1, 'Pb': 1}",76.0,0.0,,,10.1103/physrevlett.92.257006
Bi (La),{},"{'Bi': 1, 'La': 1}",32.0,0.0,,,10.1103/physrevlett.92.257006
Bi (Pb),{},"{'Bi': 1, 'Pb': 1}",73.0,0.0,,,10.1103/physrevlett.92.257006
Rb 3 C 60,{},"{'Rb': 3, 'C': 60}",30.0,0.0,,,10.1103/physrevlett.85.4771
Yb Rh 2 Si 2,{},"{'Yb': 1, 'Rh': 2, 'Si': 2}",2.0,0.0,,,
Li Fe As,{},"{'Li': 1, 'Fe': 1, 'As': 1}",18.0,0.0,,,10.1103/physrevb.82.184518
H C 2,{},"{'H': 1, 'C': 2}",19.1,0.0,,,10.1002/adma.201807240
Nb 0.44 Ti 0.56,{},"{'Nb': 0.44, 'Ti': 0.56}",9.6,0.0,,,10.1002/adma.201807240
Ce Ir In 5,{},"{'Ce': 1, 'Ir': 1, 'In': 5}",0.4,0.0,,,10.1103/physrevlett.98.087001
Ce Co In 5,{},"{'Ce': 1, 'Co': 1, 'In': 5}",2.3,0.0,,,10.1103/physrevlett.98.087001
Ce Rh In 5,{},"{'Ce': 1, 'Rh': 1, 'In': 5}",2.1,16.0,,,10.1103/physrevlett.98.087001
Ba Bi O 3,{},"{'Ba': 1, 'Bi': 1, 'O': 3}",30.0,0.0,,,10.1098/rsta.2015.0151
Mg B 2,{},"{'Mg': 1, 'B': 2}",37.0,0.0,,,10.1016/s0038-1098(01)00149-1
Mg B 2,{},"{'Mg': 1, 'B': 2}",39.0,0.0,,,10.1016/s0038-1098(01)00149-1
Nb,{},{'Nb': 1},8.0,0.0,films,,10.1103/physrevlett.79.1547
Na x Co O 2,{'x': []},,4.5,0.0,,,10.1103/physrevlett.96.096403
Y Ba 2 Cu 3 O 7,{},"{'Y': 1, 'Ba': 2, 'Cu': 3, 'O': 7}",88.0,0.0,sin- gle crystal,,10.1103/physrevlett.87.167006
Nd 2 Ba Zn O 5,{},"{'Nd': 2, 'Ba': 1, 'Zn': 1, 'O': 5}",2.4,0.0,,,10.1103/physrevb.65.214415
Al 2 O 3,{},"{'Al': 2, 'O': 3}",30.5,0.0,,,10.1103/physrevlett.88.027003
Dy Ni 2 B 2 C,{},"{'Dy': 1, 'Ni': 2, 'B': 2, 'C': 1}",6.0,0.0,,,
Lu Ni 2 B 2 C,{},"{'Lu': 1, 'Ni': 2, 'B': 2, 'C': 1}",16.9,0.0,sin- gle crystal,,10.1063/1.2199452
U Co Ge,{},"{'U': 1, 'Co': 1, 'Ge': 1}",3.0,0.0,,,10.1103/physrevb.82.052502
Cs 2 Cr 3 As 3,{},"{'Cs': 2, 'Cr': 3, 'As': 3}",2.2,0.0,,,10.1103/physrevb.91.180404
Rb 2 Cr 3 As 3,{},"{'Rb': 2, 'Cr': 3, 'As': 3}",4.8,0.0,,,10.1103/physrevb.91.180404
K 2 Cr 3 As 3,{},"{'K': 2, 'Cr': 3, 'As': 3}",6.1,0.0,,,10.1103/physrevb.91.180404
Mg B 2,{},"{'Mg': 1, 'B': 2}",39.0,0.0,,,10.1063/1.1479470
Ba Fe 2 As 2,{},"{'Ba': 1, 'Fe': 2, 'As': 2}",22.0,0.0,,,10.1209/0295-5075/104/67005
Sm O 0.8 F 0.2 Fe As,{},"{'Sm': 1, 'O': 0.8, 'F': 0.2, 'Fe': 1, 'As': 1}",55.0,0.0,,,10.1103/physrevb.78.012507
La Fe As O 0.9 F 0.1,{},"{'La': 1, 'Fe': 1, 'As': 1, 'O': 0.9, 'F': 0.1}",26.0,0.0,,,10.1103/physrevb.78.012507
Hg,{},{'Hg': 1},4.15,0.0,,,
Mg B 2,{},"{'Mg': 1, 'B': 2}",39.0,0.0,,,10.1016/j.physc.2007.10.016
Mg B 2,{},"{'Mg': 1, 'B': 2}",38.5,0.0,,,10.1016/j.physc.2007.10.016
Eu Sn 2 As 2,{},"{'Eu': 1, 'Sn': 2, 'As': 2}",4.8,0.0,,,
K 2 Cr 3 As 3,{},"{'K': 2, 'Cr': 3, 'As': 3}",6.1,0.0,,,10.1007/s40843-015-0021-x
Y Ba 2 Cu 3 O 6.9,{},"{'Y': 1, 'Ba': 2, 'Cu': 3, 'O': 6.9}",81.0,0.0,thin film,,
Na V 6 O 15,{},"{'Na': 1, 'V': 6, 'O': 15}",8.0,8.0,,,10.1016/s1293-2558(03)00045-1
La O Fe P,{},"{'La': 1, 'O': 1, 'Fe': 1, 'P': 1}",5.9,0.0,,,10.1038/nature07263
Cu x Bi 2 Se 3,{'x': []},,3.8,0.0,,,10.1103/physrevb.88.024515
Ru Sr 2 (Gd 1.3 Ce 0.7) Cu 2 O 10-δ,{'δ': []},,43.0,0.0,,,10.1016/j.physc.2012.09.007
Bi 1.7 Pb 0.3 Sr 2 Ca 2 Cu 3 O 10-δ,{'δ': []},,107.0,0.0,,,10.14382/epitoanyag-jsbcm.2009.19
Cu Fe As,{},"{'Cu': 1, 'Fe': 1, 'As': 1}",2.0,0.0,,,10.7566/jpsj.83.054706
Li Fe As,{},"{'Li': 1, 'Fe': 1, 'As': 1}",16.0,0.0,,,10.7566/jpsj.83.054706
Na Fe As,{},"{'Na': 1, 'Fe': 1, 'As': 1}",9.0,0.0,,,10.7566/jpsj.83.054706
Eu Sr 2 Bi 2 S 2 Se 2 F 4,{},"{'Eu': 1, 'Sr': 2, 'Bi': 2, 'S': 2, 'Se': 2, 'F': 4}",2.9,0.0,,,
Nb C,{},"{'Nb': 1, 'C': 1}",11.1,0.0,,,10.1103/physrevmaterials.2.054205
Hg Ba 2 Ca 4 Cu 5 O x,{'x': []},,108.0,0.0,,,10.1142/s021797920905403x
Hg Ba 2 Ca 3 Cu 4 O x,{'x': []},,125.0,0.0,,,10.1142/s021797920905403x
Hg Ba 2 Ca 2 Cu 3 O x,{'x': []},,133.0,0.0,,,10.1142/s021797920905403x
Al B 2,{},"{'Al': 1, 'B': 2}",1.8,0.0,,,10.1103/physrevb.64.174504
Mg B 2,{},"{'Mg': 1, 'B': 2}",39.0,0.0,,,10.1103/physrevb.64.174504
Al B 2,{},"{'Al': 1, 'B': 2}",39.0,0.0,,,10.1103/physrevb.64.174504
Mg B 2,{},"{'Mg': 1, 'B': 2}",38.0,0.0,,,10.1103/physrevb.64.174504
Nb B 2,{},"{'Nb': 1, 'B': 2}",6.0,0.0,,,10.1103/physrevb.64.174504
(Bi Pb) 2 Sr 2 Ca Cu 2 O 8+δ,{'δ': []},,72.0,0.0,,,10.1038/ncomms8699
(Bi Pb) 2 Sr 2 Ca Cu 2 O 8+δ,{'δ': []},,92.0,0.0,single crys- tals,,10.1038/ncomms8699
(Bi Pb) 2 Sr 2 Ca Cu 2 O 8+δ,{'δ': []},,72.0,0.0,single crys- tals,,10.1038/ncomms8699
Bi 2 Sr 2 Ca Cu 2 O 8+δ,{'δ': []},,92.0,0.0,single crystals,,10.1038/ncomms8699
Bi 2 Sr 2 Ca Cu 2 O 8+δ,{'δ': []},,92.0,0.0,,,10.1038/ncomms8699
Cu x Bi 2 Se 3,{'x': []},,2.2,0.0,,,10.1103/physrevb.91.144506
Fe Se,{},"{'Fe': 1, 'Se': 1}",48.0,0.0,film,,10.1103/physrevb.94.081116
Y Ba 2 Cu 4-x Ni x O 8,{'x': [0.12]},"{'Y': 1, 'Ba': 2, 'Cu': 3.88, 'Ni': 0.12, 'O': 8}",15.0,0.0,,,10.1103/physrevb.66.134511
Y Ba 2 Cu 3 O 6.98,{},"{'Y': 1, 'Ba': 2, 'Cu': 3, 'O': 6.98}",92.0,0.0,,,10.1103/physrevb.66.134511
Y Ba 2 Cu 3 O 7-δ,{'δ': []},,92.0,0.0,,,10.1103/physrevb.66.134511
Bi,{},{'Bi': 1},86.0,0.0,,,10.1103/physrevb.76.052504
K 0.8 Fe 2 Se 2,{},"{'K': 0.8, 'Fe': 2, 'Se': 2}",30.0,0.0,,,
Sr 2 Ru O 4,{},"{'Sr': 2, 'Ru': 1, 'O': 4}",1.5,0.0,pure single crystals,,10.1209/0295-5075/83/27007
Sr 2 Ru O 4,{},"{'Sr': 2, 'Ru': 1, 'O': 4}",1.31,0.0,pure single crystals,,10.1209/0295-5075/83/27007
Sr 3 Ru 2 O 7,{},"{'Sr': 3, 'Ru': 2, 'O': 7}",1.31,0.0,,,10.1209/0295-5075/83/27007
Sr 3 Ru 2 O 7,{},"{'Sr': 3, 'Ru': 2, 'O': 7}",1.39,0.0,,,10.1209/0295-5075/83/27007
Sr 2 Ru O 4,{},"{'Sr': 2, 'Ru': 1, 'O': 4}",1.4,0.0,single crystals,,10.1209/0295-5075/83/27007
Sr 2 Ru O 4,{},"{'Sr': 2, 'Ru': 1, 'O': 4}",1.0,0.0,,,10.1209/0295-5075/83/27007
Ca 2-x Na x Cu O 2 Cl 2,{'x': []},,19.6,0.0,crystals,,
Na x Cu O 2 Cl 2,{'x': []},,8.5,0.0,,,
Na x Cu O 2 Cl 2,{'x': []},,13.5,0.0,,,
Nb,{},{'Nb': 1},9.0,0.0,films,,10.1134/s0021364017080057
Nb N,{},"{'Nb': 1, 'N': 1}",9.0,0.0,films,,10.1134/s0021364017080057
Bi 2 Sr 2 Cu O 6.36,{},"{'Bi': 2, 'Sr': 2, 'Cu': 1, 'O': 6.36}",8.0,0.0,,,10.1103/physrevlett.94.047006
Fe 1+y Te 0.8 S 0.2,{'y': []},,7.0,0.0,single crystal,,10.1088/0953-2048/26/1/015015
Ca C 6,{},"{'Ca': 1, 'C': 6}",15.1,8.0,,,10.1103/physrevlett.98.067002
Fe Se,{},"{'Fe': 1, 'Se': 1}",8.0,0.0,,,10.1103/physrevb.96.180502
Y Ba 2 Cu 3 O 6+x,{'x': []},,60.0,0.0,,,10.1103/physrevlett.82.4304
Ce Ir In 5,{},"{'Ce': 1, 'Ir': 1, 'In': 5}",0.4,0.0,,,10.1103/physrevb.74.020501
Ce Rh In 5,{},"{'Ce': 1, 'Rh': 1, 'In': 5}",2.2,0.0,,,10.1103/physrevb.74.020501
Ce Co In 5,{},"{'Ce': 1, 'Co': 1, 'In': 5}",2.2,0.0,,,10.1103/physrevb.74.020501
Y Ba 2 Cu 3 O 6.6,{},"{'Y': 1, 'Ba': 2, 'Cu': 3, 'O': 6.6}",61.0,0.0,crystals,,10.1038/nature02774
Y Ba 2 Cu 3 O 6.6,{},"{'Y': 1, 'Ba': 2, 'Cu': 3, 'O': 6.6}",61.0,0.0,,,10.1038/nature02774
Nb N,{},"{'Nb': 1, 'N': 1}",10.0,0.0,thin-film,,10.1117/12.883979
Cr As,{},"{'Cr': 1, 'As': 1}",2.0,0.0,,,10.1063/1.5042740
(Bi Pb) 2 Sr 2 Cu O 6+δ,{'δ': []},,30.0,0.0,,,10.1016/j.physc.2007.03.328
Ca 3 Ir 4 Sn 13,{},"{'Ca': 3, 'Ir': 4, 'Sn': 13}",7.1,0.0,,,10.1016/j.physc.2014.11.008
Ca 3 Rh 4 Sn 13,{},"{'Ca': 3, 'Rh': 4, 'Sn': 13}",8.3,0.0,,,10.1016/j.physc.2014.11.008
Ce Co In 5,{},"{'Ce': 1, 'Co': 1, 'In': 5}",2.3,0.0,,,10.1088/0953-8984/21/7/075703
Bi 2 Sr 2 Ca Cu 2 O 8,{},"{'Bi': 2, 'Sr': 2, 'Ca': 1, 'Cu': 2, 'O': 8}",89.5,0.0,single crystal,,10.1016/j.jpcs.2005.10.084
Ba (Fe 1-x Ru x) 2 As 2,{'x': []},,30.0,0.0,,,10.2172/1048537
Ti N,{},"{'Ti': 1, 'N': 1}",0.8,0.0,,,
Pt Si,{},"{'Pt': 1, 'Si': 1}",0.9,0.0,,,
Ba 1-x Na x Ti 2 Sb 2 O,{'x': [0.12]},"{'Ba': 0.88, 'Na': 0.12, 'Ti': 2, 'Sb': 2, 'O': 1}",6.1,0.0,,,10.1016/j.solidstatesciences.2013.12.005
Ba Ti 2 Sb 2 O,{},"{'Ba': 1, 'Ti': 2, 'Sb': 2, 'O': 1}",1.2,0.0,,,10.1016/j.solidstatesciences.2013.12.005
Ba 1-x Na x Ti 2 Sb 2 O,{'x': [0.12]},"{'Ba': 0.88, 'Na': 0.12, 'Ti': 2, 'Sb': 2, 'O': 1}",1.2,0.0,,,10.1016/j.solidstatesciences.2013.12.005
Mg B 2,{},"{'Mg': 1, 'B': 2}",40.0,0.0,,,10.1016/j.physc.2004.09.009
Bi 2 Sr 2 Cu O 6,{},"{'Bi': 2, 'Sr': 2, 'Cu': 1, 'O': 6}",15.0,0.0,,,10.1103/physrevb.81.144517
Cu Ge O 3,{},"{'Cu': 1, 'Ge': 1, 'O': 3}",14.0,0.0,,,10.1103/physrevb.67.020405
Y Ba 2 Cu 3 O 6.75,{},"{'Y': 1, 'Ba': 2, 'Cu': 3, 'O': 6.75}",75.2,0.0,,,10.1103/physrevlett.109.167001
Nb 3 Sn,{},"{'Nb': 3, 'Sn': 1}",18.0,0.0,,,10.1038/srep01446
La Fe P O 3,{},"{'La': 1, 'Fe': 1, 'P': 1, 'O': 3}",56.0,0.0,,,10.1038/srep01446
Ce Co In 5,{},"{'Ce': 1, 'Co': 1, 'In': 5}",2.3,0.0,,,10.1038/srep01446
Nb 2 Pd 0.81 S 5,{},"{'Nb': 2, 'Pd': 0.81, 'S': 5}",6.6,0.0,,,10.1038/srep01446
Tb Fe As O 0.9 F 0.1,{},"{'Tb': 1, 'Fe': 1, 'As': 1, 'O': 0.9, 'F': 0.1}",50.0,0.0,,,10.1088/1367-2630/11/2/025015
Nb 2 Pd S 5,{},"{'Nb': 2, 'Pd': 1, 'S': 5}",5.9,0.0,,,10.1063/1.4881278
Nb 2 Pd S 5,{},"{'Nb': 2, 'Pd': 1, 'S': 5}",6.0,0.0,,,10.1063/1.4881278
Nb N,{},"{'Nb': 1, 'N': 1}",9.0,0.0,,,10.1063/1.4881278
Nb 2 Pd x S 5-y,"{'x': [], 'y': []}",,7.14,0.0,,,10.1063/1.4881278
Tl 2 Ba 2 Ca Cu 2 O 8,{},"{'Tl': 2, 'Ba': 2, 'Ca': 1, 'Cu': 2, 'O': 8}",112.0,0.0,,,10.1088/1742-6596/507/1/012042
Ba 0.6 K 0.4 Fe 2 As 2,{},"{'Ba': 0.6, 'K': 0.4, 'Fe': 2, 'As': 2}",38.0,0.0,,,10.1016/j.jallcom.2014.04.129
Bi 2 Sr 2 Cu O 6,{},"{'Bi': 2, 'Sr': 2, 'Cu': 1, 'O': 6}",20.0,0.0,,,10.1103/physrevb.85.092504
Bi 2 Sr 2 Cu O 6,{},"{'Bi': 2, 'Sr': 2, 'Cu': 1, 'O': 6}",33.0,0.0,,,10.1103/physrevb.85.092504
Bi 2 Sr 2 Cu O 6,{},"{'Bi': 2, 'Sr': 2, 'Cu': 1, 'O': 6}",20.0,0.0,film,,10.1103/physrevb.85.092504
Eu 0.5 K 0.5 Fe 2 As 2,{},"{'Eu': 0.5, 'K': 0.5, 'Fe': 2, 'As': 2}",32.0,0.0,,,10.1103/physrevb.84.140503
Ga 1-x Mn x As,{'x': []},,110.0,0.0,"thin, films",,10.1016/j.nimb.2004.01.133
La,{},{'La': 1},25.0,0.0,,,
Ce 0.6 Y 0.4 Fe As O 0.8 F 0.2,{},"{'Ce': 0.6, 'Y': 0.4, 'Fe': 1, 'As': 1, 'O': 0.8, 'F': 0.2}",48.6,0.0,,,10.1063/1.4872866
La Fe As O 1-x F x,{'x': []},,55.0,0.0,,,10.1063/1.4872866
Sm Fe As O 1-x F x,{'x': []},,55.0,0.0,,,10.1063/1.4872866
Ce Fe As O 1-x F x,{'x': []},,55.0,0.0,,,10.1063/1.4872866
Nd Fe As O 1-x F x,{'x': []},,55.0,0.0,,,10.1063/1.4872866
Pr Fe As O 1-x F x,{'x': []},,55.0,0.0,,,10.1063/1.4872866