Material,Substitutions,Composition,Tc (K),Pressure (GPa),Shape,Substrate,DOI
La O Tm P n,{'n': []},,50.0,0.0,,,10.1103/physrevlett.101.057010
Ce O Tm P n,{'n': []},,50.0,0.0,,,10.1103/physrevlett.101.057010
Sm O Tm P n,{'n': []},,50.0,0.0,,,10.1103/physrevlett.101.057010
Tm O Tm P n,{'n': []},,50.0,0.0,,,10.1103/physrevlett.101.057010
Fe H 5,{},"{'Fe': 1, 'H': 5}",1.0,0.0,,,10.1103/physrevb.97.214510
H 3 S,{},"{'H': 3, 'S': 1}",203.0,170.0,,,10.1103/physrevb.97.214510
Fe H 5,{},"{'Fe': 1, 'H': 5}",56.0,130.0,,,10.1103/physrevb.97.214510
Ni H 3,{},"{'Ni': 1, 'H': 3}",3.0,0.0,,,10.1103/physrevb.97.214510
Fe H 5,{},"{'Fe': 1, 'H': 5}",50.0,0.0,,,10.1103/physrevb.97.214510
Fe H 5,{},"{'Fe': 1, 'H': 5}",56.0,130.0,crystal,,10.1103/physrevb.97.214510
V 3 Si,{},"{'V': 3, 'Si': 1}",2.0,0.0,,,
V 3 Si,{},"{'V': 3, 'Si': 1}",17.0,0.0,,,
V 3 Si,{},"{'V': 3, 'Si': 1}",15.0,0.0,thin films,,
Y Ni 2 B 2 C,{},"{'Y': 1, 'Ni': 2, 'B': 2, 'C': 1}",15.0,0.0,,,10.1155/2010/523549
Bi 2 Sr 2 Ca Cu 2 O 8,{},"{'Bi': 2, 'Sr': 2, 'Ca': 1, 'Cu': 2, 'O': 8}",90.0,0.0,single crystal,,10.1016/s0921-4534(00)01777-9
Li Fe As,{},"{'Li': 1, 'Fe': 1, 'As': 1}",17.1,0.0,single crystals,,10.1103/physrevb.87.024512
Li Fe As,{},"{'Li': 1, 'Fe': 1, 'As': 1}",18.0,0.0,,,10.1103/physrevb.87.024512
Cs 3 C 60,{},"{'Cs': 3, 'C': 60}",40.0,0.0,,,10.1007/pl00011123
Nb 3 Ge,{},"{'Nb': 3, 'Ge': 1}",23.2,0.0,,,10.1007/pl00011123
V 3 Ga and Nb 3 Al,"{'n': [], 'a': [], 'd': []}",,30.0,0.0,,,10.1007/pl00011123
Rb 3 C 60,{},"{'Rb': 3, 'C': 60}",30.0,0.0,,,10.1007/pl00011123
C 60,{},{'C': 60},52.0,0.0,,,10.1007/pl00011123
Bi 2 Sr 2 Ca Cu 2 O 8,{},"{'Bi': 2, 'Sr': 2, 'Ca': 1, 'Cu': 2, 'O': 8}",90.0,0.0,,,10.1063/1.4770128
La Fe As O 0.94 F 0.06,{},"{'La': 1, 'Fe': 1, 'As': 1, 'O': 0.94, 'F': 0.06}",26.0,0.0,,,
Sm Fe As O 1-x F x,{'x': []},,55.0,0.0,,,
Fe Se,{},"{'Fe': 1, 'Se': 1}",65.0,0.0,thin film,SrTiO 3,10.1103/physrevb.95.020503
Fe Se,{},"{'Fe': 1, 'Se': 1}",8.0,0.0,,,10.1103/physrevb.95.020503
Li,{},{'Li': 1},44.8,0.0,,,10.1103/physrevb.95.020503
Fe Se,{},"{'Fe': 1, 'Se': 1}",44.8,0.0,,,10.1103/physrevb.95.020503
Fe Se,{},"{'Fe': 1, 'Se': 1}",10.0,0.0,thin flakes,,10.1103/physrevb.95.020503
Fe Se,{},"{'Fe': 1, 'Se': 1}",48.0,0.0,thin flakes,,10.1103/physrevb.95.020503
Fe Se,{},"{'Fe': 1, 'Se': 1}",2.0,0.0,thin flakes and thin films,,10.1103/physrevb.95.020503
Cd 2 Re 2 O 7,{},"{'Cd': 2, 'Re': 2, 'O': 7}",1.0,0.0,,,10.1143/jpsj.71.1634
C 60,{},{'C': 60},52.0,0.0,,,10.1126/science.1065711
La 2-x Sr x Cu O 4,{'x': []},,40.0,0.0,,,10.1088/0034-4885/62/1/002
La 2-x Sr x Cu O 4,{'x': []},,37.3,0.0,,,10.1088/0034-4885/62/1/002
Bi,{},{'Bi': 1},79.0,0.0,,,10.1088/0034-4885/62/1/002
Ba Zr O 3,{},"{'Ba': 1, 'Zr': 1, 'O': 3}",20.0,0.0,grown crystals,,10.1103/physrevb.60.1349
K 0.4 Sr 0.6 Fe 2 As 2,{},"{'K': 0.4, 'Sr': 0.6, 'Fe': 2, 'As': 2}",37.0,0.0,,,10.1103/physrevb.78.060503
Bi 2 Sr 2 Ca Cu 2 O 8,{},"{'Bi': 2, 'Sr': 2, 'Ca': 1, 'Cu': 2, 'O': 8}",86.0,0.0,,,
Bi 2 Sr 2 Ca Cu 2 O 8,{},"{'Bi': 2, 'Sr': 2, 'Ca': 1, 'Cu': 2, 'O': 8}",87.0,0.0,,,
Bi 2 Sr 2 Cu O 6,{},"{'Bi': 2, 'Sr': 2, 'Cu': 1, 'O': 6}",15.0,0.0,,,10.1103/physrevb.98.144507
La 1.85 Ba 0.15 Cu O 4,{},"{'La': 1.85, 'Ba': 0.15, 'Cu': 1, 'O': 4}",38.0,0.0,,,10.1142/s0217979213500598
La 2-x Ba x Cu O 4,{'x': []},,38.0,0.0,,,10.1142/s0217979213500598
Pb,{},{'Pb': 1},7.2,0.0,,,10.1103/physrevb.65.012507
Ce Rh In 5,{},"{'Ce': 1, 'Rh': 1, 'In': 5}",2.1,16.0,,,10.1103/physrevlett.90.227202
Y 0.8 Ca 0.2 Ba 2 Cu 3 O 7-δ,{'δ': []},,76.0,15.0,,,10.1103/physrevb.71.094509
Y Ba 2 Cu 3 O 7-δ,{'δ': []},,41.0,0.002,,,10.1103/physrevb.71.094509
La 2-x Sr x Cu O 4,{'x': []},,0.3,0.0,,,10.1109/77.622218
Se 11,{},{'Se': 11},0.3,0.0,,,
Se 11,{},{'Se': 11},14.4,0.0,,,
Se 39,{},{'Se': 39},12.0,0.0,,,
(Li 1-x Fe x O H) Fe Se,{'x': []},,40.0,0.0,,,10.1038/ncomms10565
Mg B 2,{},"{'Mg': 1, 'B': 2}",39.0,0.0,films,,10.1103/physrevlett.97.077002
Fe Te 0.5 Se 0.5,{},"{'Fe': 1, 'Te': 0.5, 'Se': 0.5}",14.4,0.0,,,10.1103/physrevb.81.092510
U Be 13,{},"{'U': 1, 'Be': 13}",0.97,0.0,,,10.1007/s10909-018-02140-z
U Be 13,{},"{'U': 1, 'Be': 13}",0.9,0.0,single crystal,,10.1007/s10909-018-02140-z
U Be 13,{},"{'U': 1, 'Be': 13}",0.08,0.0,,,10.1007/s10909-018-02140-z
U Be 13,{},"{'U': 1, 'Be': 13}",2.0,0.0,,,10.1007/s10909-018-02140-z
U Be 13,{},"{'U': 1, 'Be': 13}",0.78,0.0,,,10.1007/s10909-018-02140-z
U 1-x Th x Be 13,{'x': []},,3.0,0.0,,,10.1007/s10909-018-02140-z
U Be 13,{},"{'U': 1, 'Be': 13}",0.86,0.0,single crystal,,10.1007/s10909-018-02140-z
U Be 13,{},"{'U': 1, 'Be': 13}",0.92,0.0,,,10.1007/s10909-018-02140-z
U 1-x Th x Be 13,{'x': [0.0175]},"{'U': 0.9825, 'Th': 0.0175, 'Be': 13}",0.45,0.0,,,10.1007/s10909-018-02140-z
Hg Ba 2 Cu O 6,{},"{'Hg': 1, 'Ba': 2, 'Cu': 1, 'O': 6}",97.0,0.0,,,
Se,{},{'Se': 1},15.0,0.0,,,10.1088/1361-6668/aa8532
Fe C h,{'h': []},,32.0,0.0,,,10.1088/1361-6668/aa8532
Fe Te 0.6 Se 0.4,{},"{'Fe': 1, 'Te': 0.6, 'Se': 0.4}",14.0,0.0,,,10.1088/1361-6668/aa8532
Fe Te 0.6 Se 0.4,{},"{'Fe': 1, 'Te': 0.6, 'Se': 0.4}",21.0,0.0,,,10.1088/1361-6668/aa8532
K x Fe 2-y Se 2,"{'x': [], 'y': []}",,32.0,0.0,,,10.1088/1361-6668/aa8532
Cs V 3 Sb 5,{},"{'Cs': 1, 'V': 3, 'Sb': 5}",7.5,0.0,,,10.1063/1.353176
La Fe As O 1-x F x,{'x': []},,26.0,0.0,,,10.7566/jpsj.83.013702
Fe Se,{},"{'Fe': 1, 'Se': 1}",7.0,0.0,,,10.7566/jpsj.83.013702
Fe Se,{},"{'Fe': 1, 'Se': 1}",7.5,0.0,,,10.7566/jpsj.83.013702
Nd Ni O 2,{},"{'Nd': 1, 'Ni': 1, 'O': 2}",10.0,0.0,thin films,,
Ta Ir Te 4,{},"{'Ta': 1, 'Ir': 1, 'Te': 4}",0.57,23.8,,,10.1103/physrevb.99.020503
Sm Fe As O 0.85,{},"{'Sm': 1, 'Fe': 1, 'As': 1, 'O': 0.85}",45.0,0.0,,,10.1088/0953-8984/22/46/465701
Fe Se 0.5 Te 0.5,{},"{'Fe': 1, 'Se': 0.5, 'Te': 0.5}",12.0,0.0,,,10.1088/0953-8984/22/46/465701
Fe Se 0.5 Te 0.5,{},"{'Fe': 1, 'Se': 0.5, 'Te': 0.5}",12.0,0.0,single crystals,,10.1088/0953-8984/22/46/465701
Fe Se 0.5 Te 0.5,{},"{'Fe': 1, 'Se': 0.5, 'Te': 0.5}",14.0,0.0,,,10.1088/0953-8984/22/46/465701
Sm Fe As O 0.9 F 0.1,{},"{'Sm': 1, 'Fe': 1, 'As': 1, 'O': 0.9, 'F': 0.1}",52.0,0.0,,,10.1088/0953-8984/22/46/465701
Fe 1+δ Se,{'δ': []},,37.0,0.0,,,10.1088/0953-8984/22/46/465701
Sm Fe As O 0.85,{},"{'Sm': 1, 'Fe': 1, 'As': 1, 'O': 0.85}",50.0,0.0,,,10.1088/0953-8984/22/46/465701
La Fe As O 1-x F x,{'x': []},,23.0,0.0,,,10.1088/0953-8984/22/46/465701
Fe Se,{},"{'Fe': 1, 'Se': 1}",8.0,0.0,,,10.1088/0953-8984/22/46/465701
Sm Fe As O 0.9 F 0.1,{},"{'Sm': 1, 'Fe': 1, 'As': 1, 'O': 0.9, 'F': 0.1}",45.0,0.0,,,10.1088/0953-8984/22/46/465701
Sm Fe As O 0.85,{},"{'Sm': 1, 'Fe': 1, 'As': 1, 'O': 0.85}",14.0,0.0,,,10.1088/0953-8984/22/46/465701
Sm Fe As O 0.9 F 0.1,{},"{'Sm': 1, 'Fe': 1, 'As': 1, 'O': 0.9, 'F': 0.1}",55.0,0.0,,,10.1088/0953-8984/22/46/465701
Cu Ir 2 Te 4,{},"{'Cu': 1, 'Ir': 2, 'Te': 4}",2.5,0.0,,,10.14711/thesis-991012656469403412
Cu Ir 1.925 Ti 0.075 Te 4,{},"{'Cu': 1, 'Ir': 1.925, 'Ti': 0.075, 'Te': 4}",2.8,0.0,,,10.14711/thesis-991012656469403412
Mg B 2,{},"{'Mg': 1, 'B': 2}",39.2,0.0,,,10.1142/s0217984906011840
Mg B 2,{},"{'Mg': 1, 'B': 2}",39.0,0.0,,,10.1142/s0217984906011840
Mg B 2,{},"{'Mg': 1, 'B': 2}",40.0,0.0,,,10.1142/s0217984906011840
Nb 3 Sn,{},"{'Nb': 3, 'Sn': 1}",9.0,0.0,,,10.1088/0953-2048/17/2/008
Nb Ti,{},"{'Nb': 1, 'Ti': 1}",18.0,0.0,,,10.1088/0953-2048/17/2/008
Bi 2 Sr 2 Ca Cu 2 O 8-x,{'x': []},,80.0,0.0,,,10.1088/0953-2048/17/2/008
Mg B 2,{},"{'Mg': 1, 'B': 2}",39.0,0.0,,,10.1088/0953-2048/17/2/008
(Bi Pb) 2 Sr 2 Ca 2 Cu 3 O 10-x,{'x': []},,110.0,0.0,,,10.1088/0953-2048/17/2/008
Ir Te 2,{},"{'Ir': 1, 'Te': 2}",3.0,0.0,,,10.1088/1367-2630/17/4/043032
Ce O (F) Fe As,{},"{'Ce': 1, 'O': 1, 'F': 1, 'Fe': 1, 'As': 1}",41.0,0.0,,,10.1007/s10948-013-2264-7
La O (F) Fe As,{},"{'La': 1, 'O': 1, 'F': 1, 'Fe': 1, 'As': 1}",28.0,0.0,,,10.1007/s10948-013-2264-7
Fe Se,{},"{'Fe': 1, 'Se': 1}",12.0,0.0,,,10.1007/s10948-013-2264-7
La O 0.9 F 0.1 Fe As,{},"{'La': 1, 'O': 0.9, 'F': 0.1, 'Fe': 1, 'As': 1}",28.0,0.0,,,10.1007/s10948-013-2264-7
Ce O 0.88 F 0.12 Fe As,{},"{'Ce': 1, 'O': 0.88, 'F': 0.12, 'Fe': 1, 'As': 1}",41.0,0.0,,,10.1007/s10948-013-2264-7
Sm Fe As O 0.9 F 0.1,{},"{'Sm': 1, 'Fe': 1, 'As': 1, 'O': 0.9, 'F': 0.1}",51.5,0.0,,,10.1088/0953-8984/25/36/365701
Tb Fe As O 0.9 F 0.1,{},"{'Tb': 1, 'Fe': 1, 'As': 1, 'O': 0.9, 'F': 0.1}",50.0,0.0,,,10.1088/0953-8984/25/36/365701
Fe Se,{},"{'Fe': 1, 'Se': 1}",53.0,0.0,film,,10.1016/j.physc.2013.08.001
Fe Se,{},"{'Fe': 1, 'Se': 1}",8.0,0.0,,,10.1016/j.physc.2013.08.001
Fe Se,{},"{'Fe': 1, 'Se': 1}",37.0,8.9,,,10.1016/j.physc.2013.08.001
La Fe As O,{},"{'La': 1, 'Fe': 1, 'As': 1, 'O': 1}",26.0,0.0,,,10.1016/j.physc.2013.08.001
Yb O 0.5 F 0.5 Bi S 2,{},"{'Yb': 1, 'O': 0.5, 'F': 0.5, 'Bi': 1, 'S': 2}",2.7,0.0,,,10.1080/14786435.2012.724185
La O 1-x F x Bi S 2,{'x': []},,10.6,0.0,,,10.1080/14786435.2012.724185
Bi 4 O 4 S 3,{},"{'Bi': 4, 'O': 4, 'S': 3}",8.6,0.0,,,10.1080/14786435.2012.724185
Yb O 0.5 F 0.5 Bi S 2,{},"{'Yb': 1, 'O': 0.5, 'F': 0.5, 'Bi': 1, 'S': 2}",5.4,0.0,,,10.1080/14786435.2012.724185
Fe Se,{},"{'Fe': 1, 'Se': 1}",8.0,0.0,,,10.1021/cg900675e
Fe Te,{},"{'Fe': 1, 'Te': 1}",65.0,0.0,crystal,,10.1021/cg900675e
N 2,{},{'N': 2},42.0,0.0,,,10.1016/s0921-4526(02)02147-6
Bi 2 Sr 2 Ca Cu 2 O 8+δ,{'δ': []},,1.0,0.0,,,10.1103/physrevb.69.180510
Rb V 3 Sb 5,{},"{'Rb': 1, 'V': 3, 'Sb': 5}",103.0,0.0,,,
Ba Fe 1.82 Co 0.18 As 2,{},"{'Ba': 1, 'Fe': 1.82, 'Co': 0.18, 'As': 2}",21.0,0.0,,,10.1103/physrevlett.106.127002
Y Ni 2 B 2 C,{},"{'Y': 1, 'Ni': 2, 'B': 2, 'C': 1}",15.6,0.0,,,
Bi 4 O 4 S 3,{},"{'Bi': 4, 'O': 4, 'S': 3}",4.5,0.0,,,10.1103/physrevb.89.214513
La O 0.5 F 0.5 Bi S 2 H P,{},"{'La': 1, 'O': 0.5, 'F': 0.5, 'Bi': 1, 'S': 2, 'H': 1, 'P': 1}",8.46,0.0,,,10.1103/physrevb.89.214513
Ce In 3,{},"{'Ce': 1, 'In': 3}",2.0,1.6,,,10.1103/physrevb.67.020506
Ce In 3,{},"{'Ce': 1, 'In': 3}",0.25,0.0,,,10.1103/physrevb.67.020506
Ce 2 Rh In 8,{},"{'Ce': 2, 'Rh': 1, 'In': 8}",2.0,0.0,,,10.1103/physrevb.67.020506
La Fe As O 1-x F x,{'x': []},,26.0,0.0,,,10.1103/physrevb.80.180502
Ba 0.6 K 0.4 Fe 2 As 2,{},"{'Ba': 0.6, 'K': 0.4, 'Fe': 2, 'As': 2}",38.0,0.0,,,10.1038/srep00115
Ba 0.67 K 0.33 Fe 2 As 2,{},"{'Ba': 0.67, 'K': 0.33, 'Fe': 2, 'As': 2}",38.0,0.0,,,10.1038/srep00115
Ba 0.67 K 0.33 Fe 2 As 2,{},"{'Ba': 0.67, 'K': 0.33, 'Fe': 2, 'As': 2}",38.0,0.0,single crystals,,10.1038/srep00115
Y Ba 2 Cu 3 O 6.95,{},"{'Y': 1, 'Ba': 2, 'Cu': 3, 'O': 6.95}",92.0,0.0,,,10.1103/physrevb.62.4300
H 3 S,{},"{'H': 3, 'S': 1}",190.0,170.0,,,10.1038/nature14964
H 2 S,{},"{'H': 2, 'S': 1}",190.0,150.0,,,10.1038/nature14964
H 2 S 7,{},"{'H': 2, 'S': 7}",80.0,0.0,,,10.1038/nature14964
H 2 S,{},"{'H': 2, 'S': 1}",80.0,160.0,,,10.1038/nature14964
Mg B 2,{},"{'Mg': 1, 'B': 2}",39.0,0.0,,,10.1038/nature14964
H 2 S 7,{},"{'H': 2, 'S': 7}",190.0,170.0,,,10.1038/nature14964
H 2 S,{},"{'H': 2, 'S': 1}",190.0,170.0,,,10.1038/nature14964
Bi 2 Sr 2 Ca Cu 2 O 8,{},"{'Bi': 2, 'Sr': 2, 'Ca': 1, 'Cu': 2, 'O': 8}",10.0,0.0,,,10.1103/physrevb.95.184520
Bi 2 Sr 2 Ca Cu 2 O 8,{},"{'Bi': 2, 'Sr': 2, 'Ca': 1, 'Cu': 2, 'O': 8}",75.0,0.0,,,10.1103/physrevb.95.184520
Bi 2-y Pb y Sr 2-z La z Cu O 6+δ,"{'z': [], 'δ': [], 'y': []}",,32.0,0.0,,,10.1103/physrevb.95.184520
Bi 2 Sr 2 Ca Cu 2 O 8,{},"{'Bi': 2, 'Sr': 2, 'Ca': 1, 'Cu': 2, 'O': 8}",92.0,0.0,,,10.1103/physrevb.95.184520
Bi 2 Sr 2 Ca Cu 2 O 8,{},"{'Bi': 2, 'Sr': 2, 'Ca': 1, 'Cu': 2, 'O': 8}",15.0,0.0,,,10.1016/s0368-2048(01)00264-x
Bi 2 Sr 2 Ca Cu 2 O 8,{},"{'Bi': 2, 'Sr': 2, 'Ca': 1, 'Cu': 2, 'O': 8}",84.0,0.0,,,10.1016/s0368-2048(01)00264-x
Hg Ba 2 Ca 2 Cu 3 O 8-δ,{'δ': []},,134.0,0.0,,,10.1016/s0368-2048(01)00264-x
Bi 2 Sr 2 Ca Cu 2 O 8,{},"{'Bi': 2, 'Sr': 2, 'Ca': 1, 'Cu': 2, 'O': 8}",91.0,0.0,,,10.1016/s0368-2048(01)00264-x
Ca K (Fe 1-x Ni x) 4 As 4,{'x': []},,0.5,0.0,,,10.1103/physrevb.97.174517
Ce Ir In 5,{},"{'Ce': 1, 'Ir': 1, 'In': 5}",0.4,0.0,,,10.1103/physrevlett.108.027001
Ce Co In 5,{},"{'Ce': 1, 'Co': 1, 'In': 5}",2.3,0.0,,,10.1103/physrevlett.108.027001
Hg Ba 2 Cu O 4+δ,{'δ': []},,98.0,0.0,,,10.1103/physrevb.60.9827
Y Ba 2 Cu 3 O 6+δ,{'δ': []},,56.5,0.0,film,,10.1103/physrevb.61.7039
Y Ba 2 Cu 3 O 6+δ,{'δ': []},,89.5,0.0,film,,10.1103/physrevb.61.7039
Hg Ba 2 Ca 2 Cu 3 O 10,{},"{'Hg': 1, 'Ba': 2, 'Ca': 2, 'Cu': 3, 'O': 10}",166.0,25.0,,,
Cs Os 2 O 6,{},"{'Cs': 1, 'Os': 2, 'O': 6}",3.3,0.0,,,10.1143/jpsj.73.1655
Rb Os 2 O 6,{},"{'Rb': 1, 'Os': 2, 'O': 6}",6.3,0.0,,,10.1143/jpsj.73.1655
K Os 2 O 6,{},"{'K': 1, 'Os': 2, 'O': 6}",9.6,0.0,,,10.1143/jpsj.73.1655
Cd 2 Re 2 O 7,{},"{'Cd': 2, 'Re': 2, 'O': 7}",1.0,0.0,,,10.1143/jpsj.73.1655
K x Fe 2-y Se 2,"{'x': [], 'y': []}",,30.0,0.0,,,10.1088/0953-8984/25/12/125601
Fe As 4,{},"{'Fe': 1, 'As': 4}",50.0,0.0,,,10.7566/jpsj.85.053706
Ca C 6,{},"{'Ca': 1, 'C': 6}",11.5,0.0,,,10.1103/physrevb.78.094520
Li 2 Al B 4,{},"{'Li': 2, 'Al': 1, 'B': 4}",4.0,0.0,,,10.1103/physrevb.78.094520
Li 2 Al B 4,{},"{'Li': 2, 'Al': 1, 'B': 4}",3.6,0.0,,,10.1103/physrevb.78.094520
Mg B 2,{},"{'Mg': 1, 'B': 2}",39.0,0.0,,,10.1103/physrevb.78.094520
Li B,{},"{'Li': 1, 'B': 1}",10.0,0.0,,,10.1103/physrevb.78.094520
Ce Rh In 5,{},"{'Ce': 1, 'Rh': 1, 'In': 5}",2.3,0.0,,,10.1103/physrevb.88.245127
Mg B 2,{},"{'Mg': 1, 'B': 2}",39.0,0.0,,,10.1063/1.1590739
Mg B 2,{},"{'Mg': 1, 'B': 2}",40.0,0.0,,,10.1103/physrevb.65.134509
Fe Se 11,{},"{'Fe': 1, 'Se': 11}",100.0,0.0,thin films,,10.1103/physrevb.93.214509
Mg B 2,{},"{'Mg': 1, 'B': 2}",40.0,0.0,,,10.1103/physrevb.93.214509
Y Ba 2 Cu 4 O 8,{},"{'Y': 1, 'Ba': 2, 'Cu': 4, 'O': 8}",80.0,0.0,,,10.1103/physrevlett.85.4140
Bi 2 Sr 2 Cu O y,{'y': []},,19.0,0.0,,,10.1016/s0370-1573(96)00036-1
Ga,{},{'Ga': 1},7.6,0.0,,,10.1016/s0370-1573(96)00036-1
C 6 Yb,{},"{'C': 6, 'Yb': 1}",6.5,0.0,,,10.1007/s10909-006-9286-5
C 6 Ca,{},"{'C': 6, 'Ca': 1}",11.5,0.0,,,10.1007/s10909-006-9286-5
La Fe As 1-x P x O,{'x': [0.25]},"{'La': 1, 'Fe': 1, 'As': 0.75, 'P': 0.25, 'O': 1}",10.0,0.0,,,10.1209/0295-5075/86/47002
Gd Fe As O,{},"{'Gd': 1, 'Fe': 1, 'As': 1, 'O': 1}",56.0,0.0,,,10.1209/0295-5075/86/47002
La Fe As O,{},"{'La': 1, 'Fe': 1, 'As': 1, 'O': 1}",26.0,0.0,,,10.1209/0295-5075/86/47002
Sm Fe As O 1-x F x,{'x': []},,58.1,0.0,,,10.1063/1.4874261
Sm Fe As O,{},"{'Sm': 1, 'Fe': 1, 'As': 1, 'O': 1}",41.7,0.0,crystals,,10.1063/1.4874261
Sm Fe As O,{},"{'Sm': 1, 'Fe': 1, 'As': 1, 'O': 1}",54.2,0.0,,,10.1063/1.4874261
Sm Fe As O,{},"{'Sm': 1, 'Fe': 1, 'As': 1, 'O': 1}",54.2,0.0,polycrystalline,,10.1063/1.4874261
Eu Ba 2 Cu 3 O 7-δ,{'δ': []},,90.0,0.0,,,
La O 0.8 F 0.2 Fe As 1-x Sb x,{'x': [0.05]},"{'La': 1, 'O': 0.8, 'F': 0.2, 'Fe': 1, 'As': 0.95, 'Sb': 0.05}",28.5,0.0,,,10.1103/physrevb.84.104523
Bi 2 Sr 2 Ca Cu 2 O 8,{},"{'Bi': 2, 'Sr': 2, 'Ca': 1, 'Cu': 2, 'O': 8}",92.0,0.0,,,10.1142/9789813271142_0002
Bi 2 Sr 2 Ca Cu 2 O 8+δ,{'δ': []},,92.0,0.0,,,10.1142/9789813271142_0002
La O 1-x F x Fe As,{'x': [0.13]},"{'La': 1, 'O': 0.87, 'F': 0.13, 'Fe': 1, 'As': 1}",40.0,0.0,,,
La O 1-x F x Bi Se 2,{'x': []},,10.0,2.5,,,10.1088/0953-2048/29/4/04lt03
La O 1-x F x Bi S 2,{'x': []},,3.5,0.0,,,10.1088/0953-2048/29/4/04lt03
Sr 0.5 La 0.5 F Bi S 2,{},"{'Sr': 0.5, 'La': 0.5, 'F': 1, 'Bi': 1, 'S': 2}",2.8,0.0,,,10.1088/0953-2048/29/4/04lt03
Eu 3 F 4 Bi 2 S 4,{},"{'Eu': 3, 'F': 4, 'Bi': 2, 'S': 4}",10.0,2.5,,,10.1088/0953-2048/29/4/04lt03
Bi 4 O 4 S 3,{},"{'Bi': 4, 'O': 4, 'S': 3}",8.6,0.0,,,10.1088/0953-2048/29/4/04lt03
Sr 0.5 La 0.5 F Bi Se 2,{},"{'Sr': 0.5, 'La': 0.5, 'F': 1, 'Bi': 1, 'Se': 2}",3.8,0.0,,,10.1088/0953-2048/29/4/04lt03
La O 1-x F x Bi Se 2,{'x': []},,6.5,2.37,,,10.1088/0953-2048/29/4/04lt03
K Fe 2 As 2,{},"{'K': 1, 'Fe': 2, 'As': 2}",3.5,0.0,,,10.1103/physrevb.97.064509
K Fe 2 As 2,{},"{'K': 1, 'Fe': 2, 'As': 2}",3.4,0.0,crystals,,10.1103/physrevb.97.064509
Er Ni 2 B 2 C,{},"{'Er': 1, 'Ni': 2, 'B': 2, 'C': 1}",11.0,0.0,,,10.1088/0953-2048/23/4/043001
Ba Fe 2 As 2,{},"{'Ba': 1, 'Fe': 2, 'As': 2}",38.0,0.0,,,10.1088/0953-2048/23/4/043001
Sr Fe 2 As 2,{},"{'Sr': 1, 'Fe': 2, 'As': 2}",38.0,0.0,,,10.1088/0953-2048/23/4/043001
Ca Fe 2 As 2,{},"{'Ca': 1, 'Fe': 2, 'As': 2}",38.0,0.0,,,10.1088/0953-2048/23/4/043001
Eu Fe 2 As 2,{},"{'Eu': 1, 'Fe': 2, 'As': 2}",38.0,0.0,,,10.1088/0953-2048/23/4/043001
Sm Fe As O 0.85 F 0.15,{},"{'Sm': 1, 'Fe': 1, 'As': 1, 'O': 0.85, 'F': 0.15}",42.0,0.0,polycrystalline,,10.1088/0953-2048/23/4/043001
Lu Ni 2 B 2 C,{},"{'Lu': 1, 'Ni': 2, 'B': 2, 'C': 1}",8.5,0.0,,,10.1088/0953-2048/23/4/043001
Ca C 6,{},"{'Ca': 1, 'C': 6}",11.5,0.0,,,10.1088/0953-2048/23/4/043001
Mg B 2,{},"{'Mg': 1, 'B': 2}",30.0,0.0,polycrystals,,10.1088/0953-2048/23/4/043001
Ba (Fe 0.93 Co 0.07) 2 As 2,{},"{'Ba': 1, 'Fe': 1.86, 'Co': 0.14, 'As': 2}",23.0,0.0,,,10.1088/0953-2048/23/4/043001
Nd Fe As O 0.85,{},"{'Nd': 1, 'Fe': 1, 'As': 1, 'O': 0.85}",45.5,0.0,,,10.1088/0953-2048/23/4/043001
Mg B 2,{},"{'Mg': 1, 'B': 2}",19.0,0.0,,,10.1088/0953-2048/23/4/043001
Ba (Fe 0.925 Co 0.075) 2 As 2,{},"{'Ba': 1, 'Fe': 1.85, 'Co': 0.15, 'As': 2}",25.5,0.0,,,10.1088/0953-2048/23/4/043001
Tb Fe As O 0.9 F 0.1,{},"{'Tb': 1, 'Fe': 1, 'As': 1, 'O': 0.9, 'F': 0.1}",50.0,0.0,,,10.1088/0953-2048/23/4/043001
Mg B 2,{},"{'Mg': 1, 'B': 2}",39.0,0.0,,,10.1088/0953-2048/23/4/043001
La Fe As O 1-x F x,{'x': []},,27.0,0.0,polycrystals,,10.1088/0953-2048/23/4/043001
Al,{},{'Al': 1},1.46,0.0,,,10.1063/1.1850331
Gd Ti O 3,{},"{'Gd': 1, 'Ti': 1, 'O': 3}",28.0,0.0,,,10.1103/physrevb.63.193103
Ni 4,{},{'Ni': 4},9.8,0.0,,,10.1103/physrevb.91.014501
Ni 4,{},{'Ni': 4},10.5,0.0,,,10.1103/physrevb.91.014501
Ni 2,{},{'Ni': 2},12.0,0.0,,,10.1103/physrevb.91.014501
La O 1-x F x Fe As,{'x': []},,26.0,0.0,,,10.1103/physrevb.91.014501
Nd 1.85 Ce 0.15 Cu O 4,{},"{'Nd': 1.85, 'Ce': 0.15, 'Cu': 1, 'O': 4}",22.0,0.0,,,10.1142/9789813271142_0013
Pr 0.88 La Ce 0.12 Cu O 4,{},"{'Pr': 0.88, 'La': 1, 'Ce': 0.12, 'Cu': 1, 'O': 4}",24.0,0.0,,,10.1142/9789813271142_0013
C 60,{},{'C': 60},52.0,0.0,,,10.1088/0953-8984/22/22/222203
Tl 2 Ba 2 Cu O 6+y,{'y': []},,15.0,0.0,,,10.1088/0953-8984/22/22/222203
Rb Os 2 O 6,{},"{'Rb': 1, 'Os': 2, 'O': 6}",6.3,0.0,,,10.1103/physrevlett.96.247004
Cs Os 2 O 6,{},"{'Cs': 1, 'Os': 2, 'O': 6}",3.3,0.0,,,10.1103/physrevlett.96.247004
K Os 2 O 6,{},"{'K': 1, 'Os': 2, 'O': 6}",9.6,0.0,,,10.1103/physrevlett.96.247004
Ce In 3,{},"{'Ce': 1, 'In': 3}",0.2,0.0,,,10.1103/physrevb.66.054521
Ce Rh In 5,{},"{'Ce': 1, 'Rh': 1, 'In': 5}",2.1,0.0,,,10.1103/physrevb.66.054521
Ce Ir In 5,{},"{'Ce': 1, 'Ir': 1, 'In': 5}",0.4,0.0,,,10.1103/physrevb.66.054521
Nd Fe As O 0.85,{},"{'Nd': 1, 'Fe': 1, 'As': 1, 'O': 0.85}",53.5,0.0,,,10.1209/0295-5075/91/57005
Ce Cu 2 Ge 2,{},"{'Ce': 1, 'Cu': 2, 'Ge': 2}",2.4,0.0,,,10.1016/j.physb.2005.01.056
Fe,{},{'Fe': 1},3.0,30.0,,,10.1016/j.physb.2005.01.056
Hg Ba 2 Cu O 6,{},"{'Hg': 1, 'Ba': 2, 'Cu': 1, 'O': 6}",72.0,0.0,,,10.1146/annurev-conmatphys-031218-013210
Tl 2 Ba 2 Cu O 6,{},"{'Tl': 2, 'Ba': 2, 'Cu': 1, 'O': 6}",10.0,0.0,,,10.1146/annurev-conmatphys-031218-013210
Y Ba 2 Cu 4 O 8,{},"{'Y': 1, 'Ba': 2, 'Cu': 4, 'O': 8}",80.0,0.0,,,10.1146/annurev-conmatphys-031218-013210
Tl 2 Ba 2 Cu O 6,{},"{'Tl': 2, 'Ba': 2, 'Cu': 1, 'O': 6}",20.0,0.0,,,10.1146/annurev-conmatphys-031218-013210
Ba (Fe 1-x Co x) 2 As 2,{'x': []},,25.0,0.0,,,10.1038/nphys2478
Mg B 2,{},"{'Mg': 1, 'B': 2}",39.0,0.0,,,10.1088/0953-2048/16/7/310
La Fe As O 1-x F x,{'x': []},,50.0,0.0,,,10.1143/jpsjs.77sc.147
Bi 2 Te 3,{},"{'Bi': 2, 'Te': 3}",6.5,0.0,,,10.1038/ncomms14074
U C Fe Te,{},"{'U': 1, 'C': 1, 'Fe': 1, 'Te': 1}",6.5,0.0,films,,10.1038/ncomms14074
Fe Se,{},"{'Fe': 1, 'Se': 1}",100.0,0.0,thin film,SrTiO 3,10.1038/ncomms14074
Fe 1+x Te,{'x': []},,12.0,0.0,films,,10.1038/ncomms14074
Bi 2 Te 3,{},"{'Bi': 2, 'Te': 3}",12.0,0.0,films,,10.1038/ncomms14074
Bi 2 Te 3,{},"{'Bi': 2, 'Te': 3}",6.0,0.0,,,10.1038/ncomms14074
Nb 0.25 Bi 2 Se 3,{},"{'Nb': 0.25, 'Bi': 2, 'Se': 3}",2.5,0.0,single crystal,,10.1007/s10948-019-05373-5
Nb 0.25 Bi 2 Se 3,{},"{'Nb': 0.25, 'Bi': 2, 'Se': 3}",2.5,0.0,crystal,,10.1007/s10948-019-05373-5
Tb Te 3,{},"{'Tb': 1, 'Te': 3}",0.7,1.75,,,10.1103/physrevb.91.205114
Fe S Cs,{},"{'Fe': 1, 'S': 1, 'Cs': 1}",9.0,0.0,,,
Cu O 2,{},"{'Cu': 1, 'O': 2}",100.0,0.0,,,10.1103/physrevb.65.085324