Material,Substitutions,Composition,Tc (K),Pressure (GPa),Shape,Substrate,DOI
Nb Se 2,{},"{'Nb': 1, 'Se': 2}",7.0,0.0,Monolayer,,10.1038/natrevmats.2016.94
La 2 Cu O 4,{},"{'La': 2, 'Cu': 1, 'O': 4}",50.0,0.0,,,10.1038/natrevmats.2016.94
Fe Se,{},"{'Fe': 1, 'Se': 1}",27.0,1.5,,,10.1016/j.physc.2009.03.030
La (O 1-x F x) Fe As,{'x': []},,26.0,0.0,,,10.1016/j.physc.2009.03.030
Sr Fe 2 As 2,{},"{'Sr': 1, 'Fe': 2, 'As': 2}",34.0,3.5,single crystals,,10.1016/j.physc.2009.03.030
La (O 1-x F x) Fe As,{'x': []},,50.0,0.0,,,10.1016/j.physc.2009.03.030
Sr Fe 2 As 2,{},"{'Sr': 1, 'Fe': 2, 'As': 2}",34.0,14.0,,,10.1016/j.physc.2009.03.030
La O Fe P,{},"{'La': 1, 'O': 1, 'Fe': 1, 'P': 1}",5.8,1.0,,,10.1016/j.physc.2009.03.030
Nd O 1-y Fe As,{'y': []},,54.0,0.0,,,10.1016/j.physc.2009.03.030
(Ba 1-x K x) Fe 2 As 2,{'x': [0.45]},"{'Ba': 0.55, 'K': 0.45, 'Fe': 2, 'As': 2}",30.0,0.0,,,10.1016/j.physc.2009.03.030
Sm (O 1-x F x) Fe As,{'x': [0.11]},"{'Sm': 1, 'O': 0.89, 'F': 0.11, 'Fe': 1, 'As': 1}",43.0,1.7,,,10.1016/j.physc.2009.03.030
Ba Fe 2 As 2,{},"{'Ba': 1, 'Fe': 2, 'As': 2}",29.0,2.5,,,10.1016/j.physc.2009.03.030
Sm O 1-y Fe As,{'y': []},,54.0,0.0,,,10.1016/j.physc.2009.03.030
Gd O 1-y Fe As,{'y': []},,54.0,0.0,,,10.1016/j.physc.2009.03.030
(Sr 1-x K x) Fe 2 As 2,{'x': []},,34.0,14.0,,,10.1016/j.physc.2009.03.030
Sr Fe 2 As 2,{},"{'Sr': 1, 'Fe': 2, 'As': 2}",27.0,2.5,single crystal,,10.1016/j.physc.2009.03.030
Bi 2 Se 3,{},"{'Bi': 2, 'Se': 3}",7.0,0.0,,,10.1209/0295-5075/109/67006
Sr Ti O 3,{},"{'Sr': 1, 'Ti': 1, 'O': 3}",0.3,0.0,,,10.1088/1361-6633/aa892d
K Ca 2 Fe 4 As 4 F 2,{},"{'K': 1, 'Ca': 2, 'Fe': 4, 'As': 4, 'F': 2}",33.5,0.0,,,10.1088/0256-307x/16/12/009
La (O F) Bi S 2,{},"{'La': 1, 'O': 1, 'F': 1, 'Bi': 1, 'S': 2}",10.6,0.0,,,10.1143/jpsj.81.125002
La O 1-x F x Fe As,{'x': []},,26.0,0.0,,,10.1007/s10948-009-0470-0
Y Ba 2 Cu 3 O 6.6,{},"{'Y': 1, 'Ba': 2, 'Cu': 3, 'O': 6.6}",91.0,0.0,,,10.1038/srep03446
Bi 2 Sr 2 Ca Cu 2 O 8+δ,{'δ': []},,91.0,0.0,,,10.1038/srep03446
Hg Ba 2 Cu O 4+δ,{'δ': []},,67.0,0.0,,,10.1038/srep03446
Pd Te 2,{},"{'Pd': 1, 'Te': 2}",1.7,0.0,,,10.1088/1361-648x/aaf49c
Ba 1-x K x Fe 2 As 2,{'x': []},,35.0,0.0,,,10.1103/physrevb.84.024507
K Os 2 O 6,{},"{'K': 1, 'Os': 2, 'O': 6}",9.6,0.0,,,10.1103/physrevlett.101.057004
Fe Se,{},"{'Fe': 1, 'Se': 1}",8.0,0.0,,,10.1016/j.physc.2011.04.009
K x Fe 2-y Se 2,"{'x': [], 'y': []}",,32.0,0.0,,,10.1016/j.physc.2011.04.009
K 0.8 Fe 2 Se 2,{},"{'K': 0.8, 'Fe': 2, 'Se': 2}",31.0,0.0,,,10.1016/j.physc.2011.04.009
Tl 0.58 Rb 0.42 Fe 1.72 Se 2,{},"{'Tl': 0.58, 'Rb': 0.42, 'Fe': 1.72, 'Se': 2}",32.0,0.0,,,10.1016/j.physc.2011.04.009
Cs x Fe 2 Se 2,{'x': []},,52.0,0.0,,,10.1016/j.physc.2011.04.009
Cs 0.86 Fe 1.66 Se 2,{},"{'Cs': 0.86, 'Fe': 1.66, 'Se': 2}",31.1,0.82,,,10.1016/j.physc.2011.04.009
K 0.86 Fe 2 Se 1.82,{},"{'K': 0.86, 'Fe': 2, 'Se': 1.82}",31.1,0.0,,,10.1016/j.physc.2011.04.009
Fe Se,{},"{'Fe': 1, 'Se': 1}",15.0,0.0,,,10.1016/j.physc.2011.04.009
La Fe As O,{},"{'La': 1, 'Fe': 1, 'As': 1, 'O': 1}",26.0,0.0,,,10.1016/j.physc.2011.04.009
K 0.8 Fe 2-x Se 2,{'x': []},,29.5,0.0,single crystals,,10.1016/j.physc.2011.04.009
Cs 0.86 Fe 1.66 Se 2,{},"{'Cs': 0.86, 'Fe': 1.66, 'Se': 2}",32.7,0.0,,,10.1016/j.physc.2011.04.009
Tl 0.5 K 0.34 Fe 2 Se 2,{},"{'Tl': 0.5, 'K': 0.34, 'Fe': 2, 'Se': 2}",25.1,0.0,,,10.1016/j.physc.2011.04.009
K 0.8 Fe 2 Se 2,{},"{'K': 0.8, 'Fe': 2, 'Se': 2}",33.0,0.0,,,10.1016/j.physc.2011.04.009
K 0.85 Fe 2 Se 1.8,{},"{'K': 0.85, 'Fe': 2, 'Se': 1.8}",32.7,0.0,,,10.1016/j.physc.2011.04.009
K x Fe 2 Se 2,{'x': []},,57.0,0.0,,,10.1016/j.physc.2011.04.009
Fe Se,{},"{'Fe': 1, 'Se': 1}",37.0,9.0,,,10.1016/j.physc.2011.04.009
Tl Fe 1.7 Se 2,{},"{'Tl': 1, 'Fe': 1.7, 'Se': 2}",20.0,0.0,,,10.1016/j.physc.2011.04.009
Sm Fe As O 1-x F x,{'x': []},,55.0,0.0,,,10.1016/j.physc.2011.04.009
K 0.8 Fe 2 Se 2,{},"{'K': 0.8, 'Fe': 2, 'Se': 2}",10.0,0.0,,,10.1016/j.physc.2011.04.009
K 0.8 Fe 1.8 Se,{},"{'K': 0.8, 'Fe': 1.8, 'Se': 1}",32.0,0.0,,,10.1016/j.physc.2011.04.009
Fe Se,{},"{'Fe': 1, 'Se': 1}",8.0,0.0,,,10.1063/1.4805003
Fe Se,{},"{'Fe': 1, 'Se': 1}",8.3,0.0,,,10.1063/1.4805003
Na 0.1 Fe Se,{},"{'Na': 0.1, 'Fe': 1, 'Se': 1}",8.4,0.0,,,10.1063/1.4805003
Fe 0.92 Co 0.08 Se,{},"{'Fe': 0.92, 'Co': 0.08, 'Se': 1}",8.4,0.0,,,10.1063/1.4805003
Ce Rh In 5,{},"{'Ce': 1, 'Rh': 1, 'In': 5}",2.0,16.0,,,10.1103/physrevb.66.212502
Ba 2 Ca Cu 2 O 4 F 2,{},"{'Ba': 2, 'Ca': 1, 'Cu': 2, 'O': 4, 'F': 2}",73.0,0.0,,,
La Co As O,{},"{'La': 1, 'Co': 1, 'As': 1, 'O': 1}",45.0,0.0,,,10.1016/j.jpcs.2015.01.012
Pb Mo 6 S 8,{},"{'Pb': 1, 'Mo': 6, 'S': 8}",14.0,0.0,,,10.1103/physrevb.75.104501
Li Fe As,{},"{'Li': 1, 'Fe': 1, 'As': 1}",18.0,0.0,,,10.1103/physrevb.92.134522
Ba (Fe Ru) 2 As 2,{},"{'Ba': 1, 'Fe': 2, 'Ru': 2, 'As': 2}",18.0,0.0,,,10.1103/physrevb.92.134522
Hg 0.8 Re 0.2 Ba 2 Ca 2 Cu 3 O 8,{},"{'Hg': 0.8, 'Re': 0.2, 'Ba': 2, 'Ca': 2, 'Cu': 3, 'O': 8}",126.0,0.0,,,10.1103/physrevlett.89.127002
Bi 2 Sr 2 Ca Cu 2 O 8,{},"{'Bi': 2, 'Sr': 2, 'Ca': 1, 'Cu': 2, 'O': 8}",90.0,0.0,,,10.1103/revmodphys.75.473
Bi 2 Sr 2 Ca Cu 2 O 8,{},"{'Bi': 2, 'Sr': 2, 'Ca': 1, 'Cu': 2, 'O': 8}",65.0,0.0,,,10.1103/revmodphys.75.473
Bi 2 Sr 2 Ca Cu 2 O 8,{},"{'Bi': 2, 'Sr': 2, 'Ca': 1, 'Cu': 2, 'O': 8}",85.0,0.0,,,10.1103/revmodphys.75.473
Y Ba 2 Cu 3 O 7,{},"{'Y': 1, 'Ba': 2, 'Cu': 3, 'O': 7}",89.0,0.0,,,10.1103/revmodphys.75.473
Bi 2 Sr 2 Ca Cu 2 O 8,{},"{'Bi': 2, 'Sr': 2, 'Ca': 1, 'Cu': 2, 'O': 8}",87.0,0.0,,,10.1103/revmodphys.75.473
Bi 2 Sr 2 Ca Cu 2 O 8,{},"{'Bi': 2, 'Sr': 2, 'Ca': 1, 'Cu': 2, 'O': 8}",89.0,0.0,,,10.1103/revmodphys.75.473
Y Ba 2 Cu 3 O 7-δ,{'δ': []},,90.0,0.0,,,10.1103/revmodphys.75.473
Bi 2 Sr 2 Ca Cu 2 O 8+δ,{'δ': []},,87.0,0.0,,,10.1103/revmodphys.75.473
Bi 2 Sr 2 Ca 2 Cu 3 O 10,{},"{'Bi': 2, 'Sr': 2, 'Ca': 2, 'Cu': 3, 'O': 10}",108.0,0.0,,,10.1103/revmodphys.75.473
Bi 2 Sr 2 Ca Cu 2 O 8,{},"{'Bi': 2, 'Sr': 2, 'Ca': 1, 'Cu': 2, 'O': 8}",88.0,0.0,,,10.1103/revmodphys.75.473
Nb 3 Ge,{},"{'Nb': 3, 'Ge': 1}",23.0,0.0,,,10.1103/revmodphys.75.473
Bi 2 Sr 2 Cu O 6,{},"{'Bi': 2, 'Sr': 2, 'Cu': 1, 'O': 6}",19.0,0.0,,,10.1103/revmodphys.75.473
Bi 2 Sr 2 Ca Cu 2 O 8,{},"{'Bi': 2, 'Sr': 2, 'Ca': 1, 'Cu': 2, 'O': 8}",91.0,0.0,,,10.1103/revmodphys.75.473
Bi 2 Sr 2 Ca Cu 2 O 8,{},"{'Bi': 2, 'Sr': 2, 'Ca': 1, 'Cu': 2, 'O': 8}",15.0,0.0,,,10.1103/revmodphys.75.473
Y Ba 2 Cu 3 O 7-δ,{'δ': []},,77.0,0.0,,,10.1103/revmodphys.75.473
Bi 2 Sr 2 Cu O 6,{},"{'Bi': 2, 'Sr': 2, 'Cu': 1, 'O': 6}",29.0,0.0,,,10.1103/revmodphys.75.473
Bi 2 Sr 2 Ca Cu 2 O 8,{},"{'Bi': 2, 'Sr': 2, 'Ca': 1, 'Cu': 2, 'O': 8}",58.0,0.0,,,10.1103/revmodphys.75.473
Bi 2 Sr 2 Ca Cu 2 O 8,{},"{'Bi': 2, 'Sr': 2, 'Ca': 1, 'Cu': 2, 'O': 8}",84.0,0.0,,,10.1103/revmodphys.75.473
La Ba Cu O,{},"{'La': 1, 'Ba': 1, 'Cu': 1, 'O': 1}",30.0,0.0,,,10.1103/revmodphys.75.473
Bi 2 Sr 2 Ca 2 Cu 3 O 10+δ,{'δ': []},,108.0,0.0,,,10.1103/revmodphys.75.473
Hg Ba 2 Ca 2 Cu 3 O 8+x,{'x': []},,133.5,0.0,,,10.1103/revmodphys.75.473
Sr 2 V Fe As O 3,{},"{'Sr': 2, 'V': 1, 'Fe': 1, 'As': 1, 'O': 3}",37.0,0.0,,,10.1103/physrevb.82.094503
Nb N,{},"{'Nb': 1, 'N': 1}",2.9,0.0,film,,10.1364/optica.6.000823
Bi 2 Sr 2 Cu O y,{'y': []},,13.0,0.0,,,10.1134/1.559193
Al,{},{'Al': 1},0.1,0.0,,,10.7566/jpsj.83.061016
C 6 Li,{},"{'C': 6, 'Li': 1}",1.9,0.0,,,10.1038/nphys0010
C 6 Yb,{},"{'C': 6, 'Yb': 1}",6.5,0.0,,,10.1038/nphys0010
C 6 Ca,{},"{'C': 6, 'Ca': 1}",11.5,0.0,,,10.1038/nphys0010
Ca 0.9 La 0.1 Fe As 2,{},"{'Ca': 0.9, 'La': 0.1, 'Fe': 1, 'As': 2}",42.6,0.0,,,
(Ca La) Fe As 2,{},"{'Ca': 1, 'La': 1, 'Fe': 1, 'As': 2}",45.0,0.0,,,
La Fe As 1-x P x O,{'x': []},,10.0,0.0,,,10.1088/0953-8984/23/22/223201
Nb As 2,{},"{'Nb': 1, 'As': 2}",2.63,12.8,,,10.1038/s41535-018-0132-1
U Ru 2 Si 2,{},"{'U': 1, 'Ru': 2, 'Si': 2}",17.5,0.0,,,10.1103/physrevlett.102.156403
Ce Ir In 5,{},"{'Ce': 1, 'Ir': 1, 'In': 5}",0.4,0.0,,,10.1143/jpsj.76.024703
Ce Co In 5,{},"{'Ce': 1, 'Co': 1, 'In': 5}",2.3,0.0,,,10.1143/jpsj.76.024703
Ti 3 N 4,{},"{'Ti': 3, 'N': 4}",3.0,0.0,film,,
Ba 1-x K x Bi O 3,{'x': []},,30.0,0.0,,,10.1093/acprof:oso/9780198719267.003.0002
Sr 2 Ru O 4,{},"{'Sr': 2, 'Ru': 1, 'O': 4}",1.5,0.0,,,10.1093/acprof:oso/9780198719267.003.0002
Fe Se,{},"{'Fe': 1, 'Se': 1}",10.0,0.0,,,10.1093/acprof:oso/9780198719267.003.0002
Sm Fe As O 1-x F x,{'x': []},,55.0,0.0,,,10.1063/1.4962966
Pr 1-x Sr x Ni O 2,{'x': []},,14.0,0.0,,,10.1016/j.physc.2019.1353534
(Sr 1-x Ca x) 1-y Cu O 2,"{'x': [], 'y': []}",,110.0,0.0,,,10.1016/j.physc.2019.1353534
(Ca Sr) Cu O 2,{},"{'Ca': 1, 'Sr': 1, 'Cu': 1, 'O': 2}",110.0,0.0,,,10.1016/j.physc.2019.1353534
Ba Fe 2 As 2,{},"{'Ba': 1, 'Fe': 2, 'As': 2}",38.0,0.0,,,10.1063/1.2996576
B,{},{'B': 1},5.41,0.0,,,10.1103/physrevb.82.064502
S ample C,"{'p': [], 'e': [], 'm': [], 'a': [], 'l': []}",,5.01,0.0,,,10.1103/physrevb.82.064502
La Fe As O 1-x F x,{'x': []},,26.0,0.0,,,10.1103/physrevb.82.174509
Ba Fe 1.85 Co 0.15 As 2,{},"{'Ba': 1, 'Fe': 1.85, 'Co': 0.15, 'As': 2}",25.0,0.0,,,10.1103/physrevb.82.174509
Mg B 2,{},"{'Mg': 1, 'B': 2}",39.0,0.0,,,10.1103/physrevb.82.174509
Ba Fe 1.85 Co 0.15 As 2,{},"{'Ba': 1, 'Fe': 1.85, 'Co': 0.15, 'As': 2}",25.0,0.0,single crystal,,10.1103/physrevb.82.174509
Mg B 2,{},"{'Mg': 1, 'B': 2}",40.0,0.0,,,10.1088/0953-2048/14/5/102
V 3 Si,{},"{'V': 3, 'Si': 1}",16.6,0.0,single crystal,,10.1088/0953-2048/14/5/102
Hg Ba 2 Cu O 4+δ,{'δ': []},,98.0,0.0,,,10.1103/physrevb.96.235118
Hg Ba 2 Cu O 6,{},"{'Hg': 1, 'Ba': 2, 'Cu': 1, 'O': 6}",98.0,0.0,,,10.1103/physrevb.96.235118
Tl 2 Ba 2 Cu O 6+δ,{'δ': []},,85.0,0.0,,,10.1103/physrevb.96.235118
C N Ts,{},"{'C': 1, 'N': 1, 'Ts': 1}",2.6,0.0,,,
Hg Ba Ca Cu O,{},"{'Hg': 1, 'Ba': 1, 'Ca': 1, 'Cu': 1, 'O': 1}",130.0,0.0,,,10.1088/1367-2630/16/1/013004
U Ge 2,{},"{'U': 1, 'Ge': 2}",1.0,1.0,,,10.1016/j.physleta.2015.02.045
U Co Ge,{},"{'U': 1, 'Co': 1, 'Ge': 1}",3.0,0.0,,,10.1016/j.physleta.2015.02.045
U Ru Ge,{},"{'U': 1, 'Ru': 1, 'Ge': 1}",9.5,0.0,,,10.1016/j.physleta.2015.02.045
Mg B 2,{},"{'Mg': 1, 'B': 2}",40.0,0.0,,,10.1103/physrevlett.87.087005
Sr 2 Cu O 4-x,{'x': []},,95.0,0.0,,,10.1103/physrevb.83.100515
Cu 0.75 Mo 0.25 Sr 2 Y Cu 2 O 7.54,{},"{'Cu': 2.75, 'Mo': 0.25, 'Sr': 2, 'Y': 1, 'O': 7.54}",84.0,0.0,,,10.1103/physrevb.83.100515
La 1.84 Sr 0.16 Cu O 4,{},"{'La': 1.84, 'Sr': 0.16, 'Cu': 1, 'O': 4}",95.0,0.0,,,10.1103/physrevb.83.100515
Bi 2 Sr 2 Ca Cu 2 O 8,{},"{'Bi': 2, 'Sr': 2, 'Ca': 1, 'Cu': 2, 'O': 8}",52.0,0.0,,,10.1103/physrevlett.90.207003
Mg B 2,{},"{'Mg': 1, 'B': 2}",39.0,0.0,,,10.31274/rtd-180813-16716
Na x Ta S 2,{'x': []},,2.0,0.0,,,
Na x Ta S 2,{'x': []},,4.2,0.0,,,
Na x Ta S 2,{'x': []},,4.2,0.0,crystals 2 K,,
U Pt 3,{},"{'U': 1, 'Pt': 3}",0.5,0.0,,,10.1103/physrevb.63.134502
Pu Co Ga 5,{},"{'Pu': 1, 'Co': 1, 'Ga': 5}",140.0,0.0,,,10.1007/s10948-010-1052-x
Pu Rh Ga 5,{},"{'Pu': 1, 'Rh': 1, 'Ga': 5}",8.7,0.0,,,10.1007/s10948-010-1052-x
Y Ba 2 Cu 3 O 7,{},"{'Y': 1, 'Ba': 2, 'Cu': 3, 'O': 7}",90.0,0.0,,,10.1007/s10948-010-1052-x
Y Ba 2 Cu 3 O x,{'x': []},,93.0,0.0,,,10.1103/physrevlett.111.237001
Y Ra 2 Cu 3 O y,{'y': []},,109.0,0.0,,,10.1103/physrevlett.111.237001
Ba Fe 2 As 2,{},"{'Ba': 1, 'Fe': 2, 'As': 2}",29.0,2.8,,,10.1103/physrevb.79.214520
Ba (Fe 1-x Co x) 2 As 2,{'x': []},,19.0,2.4,,,10.1103/physrevb.79.214520
Ba Fe 2 As 2,{},"{'Ba': 1, 'Fe': 2, 'As': 2}",1.8,0.0,,,10.1103/physrevb.79.214520
La (O 1-x F x) Fe As,{'x': []},,28.0,3.0,,,10.1103/physrevb.79.214520
Y Ba 2 Cu 3 O 7,{},"{'Y': 1, 'Ba': 2, 'Cu': 3, 'O': 7}",5.0,0.0,,,
Hg Ba 2 Ca 2 Cu 3 O 8+δ,{'δ': []},,134.0,0.0,,,
Bi 2 Sr 2 Cu O 6,{},"{'Bi': 2, 'Sr': 2, 'Cu': 1, 'O': 6}",32.0,0.0,,,
Ba Fe 2-x Cu x As 2,{'x': []},,2.0,0.0,,,10.1103/physrevb.96.161106
Sr Fe 2-x Cu x As 2,{'x': []},,2.0,0.0,,,10.1103/physrevb.96.161106
Na Fe 1-x Cu x As,{'x': []},,11.5,0.0,,,10.1103/physrevb.96.161106
Li C 6,{},"{'Li': 1, 'C': 6}",8.1,0.0,,,10.1103/physrevb.95.024505
Cu,{},{'Cu': 1},4.0,0.0,,,10.1103/physrevlett.118.227002
Cu x Bi 2 Se 3,{'x': []},,3.0,0.0,,,10.1103/physrevlett.118.227002
Ba Ni 2 As 2,{},"{'Ba': 1, 'Ni': 2, 'As': 2}",2.0,0.0,,,10.1038/s41567-019-0736-9
Bi 2 Sr 2 Ca Cu 2 O 8,{},"{'Bi': 2, 'Sr': 2, 'Ca': 1, 'Cu': 2, 'O': 8}",77.0,0.0,,,10.1103/physrevlett.106.047002
Y Ba 2 Cu 3 O δ,{'δ': []},,4.5,0.0,,,10.1103/physrevlett.106.047002
Mo Ge,{},"{'Mo': 1, 'Ge': 1}",7.05,0.0,thin films,,10.1103/physrevlett.122.047001
Mg B 2,{},"{'Mg': 1, 'B': 2}",39.0,0.0,,,10.1103/physrevb.75.214512
Ba 0.6 K 0.4 Fe 2 As 2,{},"{'Ba': 0.6, 'K': 0.4, 'Fe': 2, 'As': 2}",39.0,0.0,,,10.1038/ncomms2428
Sm Fe As O,{},"{'Sm': 1, 'Fe': 1, 'As': 1, 'O': 1}",55.0,0.0,,,10.1088/0953-2048/24/7/075024
Ba Fe 1.85 Co 0.15 As 2,{},"{'Ba': 1, 'Fe': 1.85, 'Co': 0.15, 'As': 2}",25.0,0.0,,,10.1209/0295-5075/83/67003
Ba 0.65 K 0.35 Fe 2 As 2,{},"{'Ba': 0.65, 'K': 0.35, 'Fe': 2, 'As': 2}",34.0,0.0,,,10.1209/0295-5075/83/67003
Sm Fe As O 1-x F x,{'x': []},,58.0,0.0,,,10.1209/0295-5075/83/67003
Ba 0.6 K 0.4 Fe 2 As 2,{},"{'Ba': 0.6, 'K': 0.4, 'Fe': 2, 'As': 2}",38.0,0.0,,,10.1209/0295-5075/83/67003
U Ru 2 Si 2,{},"{'U': 1, 'Ru': 2, 'Si': 2}",1.5,0.0,,,10.1103/physrevb.79.214413
Y 1-x Ca x Ba 2 Cu 3 O 6.1,{'x': []},,35.0,0.0,,,10.1103/physrevlett.88.037002
Mg (B 0.9 C 0.1) 2,{},"{'Mg': 1, 'B': 1.8, 'C': 0.2}",22.0,0.0,,,10.1016/s0921-4534(03)00722-6
Mg B 2,{},"{'Mg': 1, 'B': 2}",7.0,0.0,,,10.1016/s0921-4534(03)00722-6
Mg B 2 C 2,{},"{'Mg': 1, 'B': 2, 'C': 2}",22.0,0.0,,,10.1016/s0921-4534(03)00722-6
La 2-x Sr x Cu O 4,{'x': [0.07]},"{'La': 1.93, 'Sr': 0.07, 'Cu': 1, 'O': 4}",20.0,0.0,,,
La 1.93 Sr 0.07 Cu O 4,{},"{'La': 1.93, 'Sr': 0.07, 'Cu': 1, 'O': 4}",20.0,0.0,,,
Dy Rh 4 B 4,{},"{'Dy': 1, 'Rh': 4, 'B': 4}",37.0,0.0,,,10.1016/j.physc.2016.02.024
Dy Rh 4 B 4,{},"{'Dy': 1, 'Rh': 4, 'B': 4}",4.7,0.0,,,10.1016/j.physc.2016.02.024
Er Pd Bi,{},"{'Er': 1, 'Pd': 1, 'Bi': 1}",1.22,0.0,,,10.1038/srep09158
Lu Pt Bi,{},"{'Lu': 1, 'Pt': 1, 'Bi': 1}",1.0,0.0,,,10.1038/srep09158
La Pt Bi,{},"{'La': 1, 'Pt': 1, 'Bi': 1}",0.9,0.0,,,10.1038/srep09158
Y Pt Bi,{},"{'Y': 1, 'Pt': 1, 'Bi': 1}",0.77,0.0,,,10.1038/srep09158
Ce Pd Bi,{},"{'Ce': 1, 'Pd': 1, 'Bi': 1}",1.3,0.0,,,10.1038/srep09158
Lu Pd Bi,{},"{'Lu': 1, 'Pd': 1, 'Bi': 1}",1.7,0.0,,,10.1038/srep09158
Bi 2 Sr 2 Ca Cu 2 O 8,{},"{'Bi': 2, 'Sr': 2, 'Ca': 1, 'Cu': 2, 'O': 8}",76.0,0.0,single crystals,,10.1103/physrevlett.101.137003
Y Ba 2 Cu 3 O y,{'y': []},,94.0,0.0,,,10.1038/nphys2502
Mg B 2,{},"{'Mg': 1, 'B': 2}",39.0,0.0,,,10.1007/s10948-011-1146-0
Mg B 2,{},"{'Mg': 1, 'B': 2}",38.0,0.0,,,10.1007/s10948-011-1146-0
Al B 2,{},"{'Al': 1, 'B': 2}",2.0,0.0,,,10.1007/s10948-011-1146-0
Al B 2,{},"{'Al': 1, 'B': 2}",38.0,0.0,,,10.1007/s10948-011-1146-0
Mg B 2,{},"{'Mg': 1, 'B': 2}",38.7,0.0,,,10.1007/s10948-011-1146-0
Mg Al 2 O 4,{},"{'Mg': 1, 'Al': 2, 'O': 4}",24.0,0.0,,,10.1016/j.phpro.2013.04.084
Sr Ti O 3,{},"{'Sr': 1, 'Ti': 1, 'O': 3}",24.0,0.0,,,10.1016/j.phpro.2013.04.084
Bi 2 Sr 2 Ca 2 Cu 3 O 10,{},"{'Bi': 2, 'Sr': 2, 'Ca': 2, 'Cu': 3, 'O': 10}",110.0,0.0,Single crystals,,10.1007/s00723-010-0176-2
Mg B 2,{},"{'Mg': 1, 'B': 2}",39.0,0.0,,,10.1103/physrevb.65.012505
Mg B 2,{},"{'Mg': 1, 'B': 2}",1.0,0.0,,,10.1103/physrevb.65.012505
Ba Zr O 3,{},"{'Ba': 1, 'Zr': 1, 'O': 3}",25.0,0.0,,,10.1063/1.4908257
Fe S Cs,{},"{'Fe': 1, 'S': 1, 'Cs': 1}",4.2,0.0,,,10.1063/1.4908257
Sm Fe As (O F),{},"{'Sm': 1, 'Fe': 1, 'As': 1, 'O': 1, 'F': 1}",54.0,0.0,,,10.1063/1.4908257
Fe Se,{},"{'Fe': 1, 'Se': 1}",8.0,0.0,,,10.1088/0953-8984/22/14/142202
Fe Se,{},"{'Fe': 1, 'Se': 1}",37.0,0.0,,,10.1088/0953-8984/22/14/142202
Fe 1.1 Se 0.25 Te 0.75,{},"{'Fe': 1.1, 'Se': 0.25, 'Te': 0.75}",8.6,0.0,,,10.1088/0953-8984/22/14/142202
Fe Te 0.5 Se 0.5,{},"{'Fe': 1, 'Te': 0.5, 'Se': 0.5}",10.8,0.0,,,10.1109/tasc.2010.2086031
Fe Se,{},"{'Fe': 1, 'Se': 1}",8.5,0.0,,,10.1109/tasc.2010.2086031
Fe Te 0.5 Se 0.5,{},"{'Fe': 1, 'Te': 0.5, 'Se': 0.5}",3.2,0.0,,,10.1109/tasc.2010.2086031
Na 0.33 V 2 O 5,{},"{'Na': 0.33, 'V': 2, 'O': 5}",8.0,8.0,,,10.1103/physrevb.69.140506
La Fe O P,{},"{'La': 1, 'Fe': 1, 'O': 1, 'P': 1}",5.0,0.0,,,10.1103/physrevb.86.144519
Ba Fe 2 (As 1-x P x) 2,{'x': []},,30.0,0.0,,,10.1103/physrevb.86.144519
Li Fe P,{},"{'Li': 1, 'Fe': 1, 'P': 1}",5.0,0.0,,,10.1103/physrevb.86.144519
Nb,{},{'Nb': 1},9.2,0.0,,,10.1103/physrevb.65.144509
Nb 3 Ge,{},"{'Nb': 3, 'Ge': 1}",23.4,0.0,,,
Sr 2 Ru O 4,{},"{'Sr': 2, 'Ru': 1, 'O': 4}",43.0,0.0,,,
Bi 2 Sr 2 Ca 2 Cu 3 O 10+δ,{'δ': []},,108.0,0.0,single crystals,,10.1103/physrevlett.90.217002
Ru Sr 2 Gd 1.4 Ce 0.6 Cu 2 O 10,{},"{'Ru': 1, 'Sr': 2, 'Gd': 1.4, 'Ce': 0.6, 'Cu': 2, 'O': 10}",5.0,0.0,,,10.1117/12.466655
Eu 1.4 Ce 0.6 Ru Sr 2 Cu 2 O 10,{},"{'Eu': 1.4, 'Ce': 0.6, 'Ru': 1, 'Sr': 2, 'Cu': 2, 'O': 10}",45.0,54.0,,,10.1117/12.466655
Gd Ba 2 Cu 3 O 7,{},"{'Gd': 1, 'Ba': 2, 'Cu': 3, 'O': 7}",92.0,0.0,,,10.1117/12.466655
Gd 1.4 Ce 0.6 Ru Sr 2 Cu 2 O 10,{},"{'Gd': 1.4, 'Ce': 0.6, 'Ru': 1, 'Sr': 2, 'Cu': 2, 'O': 10}",34.0,0.0,,,10.1117/12.466655
Ba 1-x K x Fe 2 As 2,{'x': []},,38.0,0.0,,,10.1103/physrevlett.109.097002
Ba Fe 2 (As 1-x P x) 2,{'x': []},,31.0,0.0,,,10.1103/physrevlett.109.097002
Ba Ni 2 P 2,{},"{'Ba': 1, 'Ni': 2, 'P': 2}",2.5,0.0,,,10.1103/physrevlett.109.097002
W O 3,{},"{'W': 1, 'O': 3}",91.5,0.0,,,10.1103/physrevlett.89.227002
La 1.8 Sr 0.2 Cu O 4,{},"{'La': 1.8, 'Sr': 0.2, 'Cu': 1, 'O': 4}",32.0,0.0,,,
Ta Se 2,{},"{'Ta': 1, 'Se': 2}",0.1,0.0,,,10.1103/physrevlett.86.4382
Y B 6,{},"{'Y': 1, 'B': 6}",5.9,0.0,,,10.1103/physrevb.90.045136
Y B 5.7,{},"{'Y': 1, 'B': 5.7}",7.6,0.0,,,10.1103/physrevb.90.045136
Y B 5.9,{},"{'Y': 1, 'B': 5.9}",6.6,0.0,,,10.1103/physrevb.90.045136
Y B 6,{},"{'Y': 1, 'B': 6}",7.2,0.0,,,10.1103/physrevb.90.045136
Hg 0.8 Cu 0.2 Ba 2 Ca 2 Cu 3 O 8+δ,{'δ': []},,134.0,0.0,,,10.1016/j.physc.2004.02.183
Hg Ba 2 Ca 4 Cu 5 O y,{'y': []},,108.0,0.0,,,10.1016/j.physc.2004.02.183
U Co Ge,{},"{'U': 1, 'Co': 1, 'Ge': 1}",3.0,0.0,,,10.1103/physrevlett.99.067006
U Rh Ge,{},"{'U': 1, 'Rh': 1, 'Ge': 1}",9.5,0.0,,,10.1103/physrevlett.99.067006
Ba Fe 2 (As 0.72 P 0.28) 2,{},"{'Ba': 1, 'Fe': 2, 'As': 1.44, 'P': 0.56}",28.0,0.0,,,10.1103/physrevb.101.020507
Ba Fe 2 (As 1-x P x) 2,{'x': [0.3]},"{'Ba': 1, 'Fe': 2, 'As': 1.4, 'P': 0.6}",30.0,0.0,,,10.1103/physrevb.101.020507
Ca 0.73 La 0.27 Fe As 2,{},"{'Ca': 0.73, 'La': 0.27, 'Fe': 1, 'As': 2}",20.0,0.0,,,10.1103/physrevb.93.174513
Fe Te 0.55 Se 0.45,{},"{'Fe': 1, 'Te': 0.55, 'Se': 0.45}",14.5,0.0,,,
Fe Se,{},"{'Fe': 1, 'Se': 1}",0.4,0.0,,,10.7566/jpsj.86.083706
Mg B 2,{},"{'Mg': 1, 'B': 2}",40.0,0.0,,,10.1142/s0217984901001707
Zn N,{},"{'Zn': 1, 'N': 1}",8.8,0.0,,,10.1142/s0217984901001707
Hf N Cl,{},"{'Hf': 1, 'N': 1, 'Cl': 1}",25.0,0.0,,,10.1142/s0217984901001707
Zr N Cl,{},"{'Zr': 1, 'N': 1, 'Cl': 1}",15.0,0.0,,,10.1142/s0217984901001707
Zr N Cl,{},"{'Zr': 1, 'N': 1, 'Cl': 1}",25.0,0.0,,,10.1142/s0217984901001707
C 60,{},{'C': 60},52.0,0.0,,,10.1142/s0217984901001707
Mg B,{},"{'Mg': 1, 'B': 1}",40.0,0.0,,,10.1142/s0217984901001707
Mo N x,{'x': []},,2.0,0.0,,,10.1109/tasc.2016.2519388
Y Ba 2 Cu 3 O y,{'y': []},,80.0,0.0,thin films,,
H 2 S,{},"{'H': 2, 'S': 1}",190.0,170.0,,,
H 2 S,{},"{'H': 2, 'S': 1}",190.0,190.0,,,
H 2 S,{},"{'H': 2, 'S': 1}",190.0,180.0,,,
H 2 S,{},"{'H': 2, 'S': 1}",100.0,0.0,,,
Si H 4,{},"{'Si': 1, 'H': 4}",17.0,113.0,,,
H 2 S,{},"{'H': 2, 'S': 1}",205.0,170.0,,,
H 2 S,{},"{'H': 2, 'S': 1}",17.0,113.0,,,
Bi 4 O 4 S 3,{},"{'Bi': 4, 'O': 4, 'S': 3}",8.6,0.0,,,
La O Bi S 2,{},"{'La': 1, 'O': 1, 'Bi': 1, 'S': 2}",4.0,0.0,,,
Sr Sn 3,{},"{'Sr': 1, 'Sn': 3}",4.8,0.0,,,10.1080/14786435.2012.682180
Ba Sn 5,{},"{'Ba': 1, 'Sn': 5}",4.4,0.0,,,10.1080/14786435.2012.682180
Ba Sn 3,{},"{'Ba': 1, 'Sn': 3}",5.4,0.0,,,10.1080/14786435.2012.682180
Ba Sn 5,{},"{'Ba': 1, 'Sn': 5}",2.4,0.0,,,10.1080/14786435.2012.682180
Sn,{},{'Sn': 1},3.7,0.0,,,10.1080/14786435.2012.682180
Mg 0.85 B 2 B,{},"{'Mg': 0.85, 'B': 3}",10.0,0.0,,,10.1103/physrevb.81.054520
Mg 1-x B 2,{'x': []},,3.0,0.0,,,10.1103/physrevb.81.054520
Mg B 2,{},"{'Mg': 1, 'B': 2}",38.7,0.0,crystals,,10.1103/physrevb.81.054520
Mg B 2,{},"{'Mg': 1, 'B': 2}",0.55,0.0,crystals,,10.1103/physrevb.81.054520
K x Ba 1-x Bi O 3,{'x': []},,40.0,0.0,,,10.1142/s0217984995001686