Material,Substitutions,Composition,Tc (K),Pressure (GPa),Shape,Substrate,DOI
Zn,{},{'Zn': 1},2.2,0.0,,,10.1103/physrevb.92.184509
Ce (Co Rh) In 5,{},"{'Ce': 1, 'Co': 1, 'Rh': 1, 'In': 5}",1.5,0.0,,,10.1103/physrevb.92.184509
H c2,{'c': []},,1.0,0.0,,,10.1103/physrevb.94.014501
Ce Co In 5,{},"{'Ce': 1, 'Co': 1, 'In': 5}",2.3,0.0,,,10.1103/physrevb.94.014501
Mg B 2,{},"{'Mg': 1, 'B': 2}",40.2,0.0,,,10.1088/0953-2048/14/7/103
Mg 10 B 2,{},"{'Mg': 10, 'B': 2}",40.2,0.0,,,10.1088/0953-2048/14/7/103
Mg B 2,{},"{'Mg': 1, 'B': 2}",39.4,0.0,,,10.1088/0953-2048/14/7/103
Ba Fe 2 As 2,{},"{'Ba': 1, 'Fe': 2, 'As': 2}",32.0,0.0,,,10.1103/physrevb.100.054510
La H 10,{},"{'La': 1, 'H': 10}",24.0,0.0,,,10.1103/physrevb.101.104506
La H 10,{},"{'La': 1, 'H': 10}",233.0,170.0,,,10.1103/physrevb.101.104506
Y H 10,{},"{'Y': 1, 'H': 10}",24.0,0.0,,,10.1103/physrevb.101.104506
Rb 2 Fe 4 Se 5,{},"{'Rb': 2, 'Fe': 4, 'Se': 5}",30.0,0.0,,,10.1103/physrevb.84.100509
Ba (Fe 0.915 Co 0.085) 2 As 2,{},"{'Ba': 1, 'Fe': 1.83, 'Co': 0.17, 'As': 2}",17.0,0.0,,,10.1103/physrevb.84.100509
Lu Pt Bi,{},"{'Lu': 1, 'Pt': 1, 'Bi': 1}",1.0,0.0,,,10.1209/0295-5075/104/27001
Er Pd Bi,{},"{'Er': 1, 'Pd': 1, 'Bi': 1}",1.22,0.0,,,10.1209/0295-5075/104/27001
Er Pd Bi,{},"{'Er': 1, 'Pd': 1, 'Bi': 1}",1.4,0.0,,,10.1209/0295-5075/104/27001
Ce Pt 3 Si,{},"{'Ce': 1, 'Pt': 3, 'Si': 1}",0.75,0.0,,,10.1209/0295-5075/104/27001
Y Pt Bi,{},"{'Y': 1, 'Pt': 1, 'Bi': 1}",0.77,0.0,,,10.1209/0295-5075/104/27001
La Pt Bi,{},"{'La': 1, 'Pt': 1, 'Bi': 1}",0.77,0.0,,,10.1209/0295-5075/104/27001
La Pt Bi,{},"{'La': 1, 'Pt': 1, 'Bi': 1}",0.9,0.0,,,10.1209/0295-5075/104/27001
Er Pd Bi,{},"{'Er': 1, 'Pd': 1, 'Bi': 1}",1.22,0.0,single crystals,,10.1209/0295-5075/104/27001
Ir 0.95 Pt 0.05 Te 2,{},"{'Ir': 0.95, 'Pt': 0.05, 'Te': 2}",3.0,0.0,,,10.1038/srep01153
Ir Te 2,{},"{'Ir': 1, 'Te': 2}",3.0,0.0,single crystals,,10.1038/srep01153
Y Ba 2 Cu 3 O 7-δ,{'δ': []},,35.0,0.0,,,10.1088/0953-8984/25/6/065702
La 1.85 Sr 0.15 Cu O 4,{},"{'La': 1.85, 'Sr': 0.15, 'Cu': 1, 'O': 4}",35.0,0.0,,,10.1088/0953-8984/25/6/065702
H C 2,{},"{'H': 1, 'C': 2}",92.0,0.0,,,10.1088/0953-8984/25/6/065702
(Sr) Fe 2 As 2,{},"{'Sr': 1, 'Fe': 2, 'As': 2}",39.0,0.0,,,10.1038/srep04065
(Ba) Fe 2 As 2,{},"{'Ba': 1, 'Fe': 2, 'As': 2}",39.0,0.0,,,10.1038/srep04065
Nb Ge,{},"{'Nb': 1, 'Ge': 1}",2.88,0.0,,,10.1103/physrevb.76.220507
Na Co 2 O 4,{},"{'Na': 1, 'Co': 2, 'O': 4}",5.0,0.0,,,10.1103/physrevlett.91.257006
H 2 O,{},"{'H': 2, 'O': 1}",5.0,0.0,,,10.1103/physrevlett.91.257006
Tl 2 Ba 2 Cu O 6,{},"{'Tl': 2, 'Ba': 2, 'Cu': 1, 'O': 6}",93.0,0.0,,,10.1016/j.physc.2008.05.015
Hg Ba 2 Cu O 6,{},"{'Hg': 1, 'Ba': 2, 'Cu': 1, 'O': 6}",98.0,0.0,,,10.1016/j.physc.2008.05.015
Sr Pt 3 P,{},"{'Sr': 1, 'Pt': 3, 'P': 1}",8.4,0.0,,,10.1103/physrevb.90.140507
Mg B 2,{},"{'Mg': 1, 'B': 2}",40.0,0.0,,,10.1103/physrevb.64.180506
Ce Au 2 Si 2,{},"{'Ce': 1, 'Au': 2, 'Si': 2}",1.15,0.0,,,10.1103/physrevb.91.094515
Ce Au 2 Si 2,{},"{'Ce': 1, 'Au': 2, 'Si': 2}",2.5,0.0,,,10.1103/physrevb.91.094515
H P Sn 1-x Ag x Te,{'x': [0.15]},"{'H': 1, 'P': 1, 'Sn': 0.85, 'Ag': 0.15, 'Te': 1}",2.4,0.0,,,10.7566/jpsj.85.053702
Sn Te,{},"{'Sn': 1, 'Te': 1}",0.3,0.0,,,10.7566/jpsj.85.053702
Fe Se,{},"{'Fe': 1, 'Se': 1}",65.0,0.0,,,10.1088/2053-1583/ab734b
I B S Cs,{},"{'I': 1, 'B': 1, 'S': 1, 'Cs': 1}",55.0,0.0,,,10.1088/2053-1583/ab734b
Fe Se,{},"{'Fe': 1, 'Se': 1}",48.0,0.0,,,10.1088/2053-1583/ab734b
La O 1-x F x Fe As,{'x': []},,26.0,0.0,,,10.1088/2053-1583/ab734b
Fe Se,{},"{'Fe': 1, 'Se': 1}",41.0,0.0,crystal,,10.1088/2053-1583/ab734b
Fe Se,{},"{'Fe': 1, 'Se': 1}",70.0,0.0,,,10.1088/2053-1583/ab734b
Fe Se,{},"{'Fe': 1, 'Se': 1}",5.2,0.0,thin flake,,10.1088/2053-1583/ab734b
Fe Se,{},"{'Fe': 1, 'Se': 1}",8.0,0.0,,,10.1088/2053-1583/ab734b
Li Fe As,{},"{'Li': 1, 'Fe': 1, 'As': 1}",18.0,0.0,,,10.1063/1.5050752
Fe 1.01 Se,{},"{'Fe': 1.01, 'Se': 1}",8.5,8.9,,,10.1063/1.5050752
Fe S C,{},"{'Fe': 1, 'S': 1, 'C': 1}",30.0,0.0,,,10.1063/1.5050752
Al,{},{'Al': 1},1.3,0.0,,,10.1021/acs.nanolett.9b02369
Mg B 2,{},"{'Mg': 1, 'B': 2}",5.0,0.0,,,10.1103/physrevb.65.184525
Fe Se,{},"{'Fe': 1, 'Se': 1}",9.0,0.0,,,10.1007/s11434-016-1102-2
Y,{},{'Y': 1},10.0,0.0,,,10.1103/physrevb.67.140504
Nb,{},{'Nb': 1},9.2,0.0,,,10.1088/1361-6668/aa9e17
Ru Sr 2 Eu Cu 2 O 8,{},"{'Ru': 1, 'Sr': 2, 'Eu': 1, 'Cu': 2, 'O': 8}",25.0,0.0,,,
Ru Sr 2 Y Cu 2 O 8,{},"{'Ru': 1, 'Sr': 2, 'Y': 1, 'Cu': 2, 'O': 8}",39.0,0.0,,,
Al,{},{'Al': 1},1.12,0.0,,,10.1103/physrevb.77.134505
Fe Se,{},"{'Fe': 1, 'Se': 1}",55.0,0.0,,,10.1134/s0031918x12050031
Ba Fe 2 Se 3,{},"{'Ba': 1, 'Fe': 2, 'Se': 3}",10.0,0.0,,,10.1103/physrevb.97.045119
Ba Fe 2 S 3,{},"{'Ba': 1, 'Fe': 2, 'S': 3}",24.0,10.0,,,10.1103/physrevb.97.045119
U Co Ge,{},"{'U': 1, 'Co': 1, 'Ge': 1}",0.8,0.0,,,10.1143/jpsj.77.073703
Ta N x,{'x': []},,2.75,0.0,,,10.1103/physrevb.86.014514
Fe Se,{},"{'Fe': 1, 'Se': 1}",40.0,0.0,,,10.1103/physrevb.93.184503
Fe Se,{},"{'Fe': 1, 'Se': 1}",8.0,0.0,,,10.1103/physrevb.93.184503
La 1.88 Sr 0.12 Cu O 4,{},"{'La': 1.88, 'Sr': 0.12, 'Cu': 1, 'O': 4}",31.0,0.0,,,10.1103/physrevb.60.r769
Bi 2 Sr 2 Cu O 6+y,{'y': []},,9.0,0.0,thin film,,10.1103/physrevb.67.100507
Sc 3 In B 0.85,{},"{'Sc': 3, 'In': 1, 'B': 0.85}",0.5,0.0,,,10.1002/pssb.200562472
Mg C Ni 3,{},"{'Mg': 1, 'C': 1, 'Ni': 3}",8.0,0.0,,,10.1002/pssb.200562472
Sc 3 In B 0.93,{},"{'Sc': 3, 'In': 1, 'B': 0.93}",4.0,0.0,,,10.1002/pssb.200562472
Gd Co As O,{},"{'Gd': 1, 'Co': 1, 'As': 1, 'O': 1}",75.0,0.0,,,10.1103/physrevb.87.075148
Ce Fe As O,{},"{'Ce': 1, 'Fe': 1, 'As': 1, 'O': 1}",41.0,0.0,,,10.1103/physrevb.87.075148
La Co P O,{},"{'La': 1, 'Co': 1, 'P': 1, 'O': 1}",60.0,0.0,,,10.1103/physrevb.87.075148
La Fe As O 1-x F x,{'x': []},,26.0,0.0,,,10.1103/physrevb.87.075148
Ce Co As O,{},"{'Ce': 1, 'Co': 1, 'As': 1, 'O': 1}",75.0,0.0,,,10.1103/physrevb.87.075148
Gd Fe 1-y Co y As O,{'y': []},,13.5,0.0,,,10.1103/physrevb.87.075148
Co P O,{},"{'Co': 1, 'P': 1, 'O': 1}",75.0,0.0,,,10.1103/physrevb.87.075148
La Co As O,{},"{'La': 1, 'Co': 1, 'As': 1, 'O': 1}",50.0,0.0,,,10.1103/physrevb.87.075148
Cu 0.06 Ti Se 2,{},"{'Cu': 0.06, 'Ti': 1, 'Se': 2}",2.3,0.0,single crystal,,10.1038/s41598-017-19042-x
Sr 2 Ru O 4,{},"{'Sr': 2, 'Ru': 1, 'O': 4}",1.5,0.0,,,10.1038/s41598-017-19042-x
Tl 2 Ba 2 Cu O 6,{},"{'Tl': 2, 'Ba': 2, 'Cu': 1, 'O': 6}",15.0,0.0,,,10.1038/s41598-017-19042-x
Nb C,{},"{'Nb': 1, 'C': 1}",8.9,0.0,,,
Be 22 Re,{},"{'Be': 22, 'Re': 1}",9.6,0.0,,,10.1016/s0921-4526(96)00524-8
Li,{},{'Li': 1},0.4,0.0,,,10.1016/s0921-4526(96)00524-8
Be,{},{'Be': 1},9.6,0.0,,,10.1016/s0921-4526(96)00524-8
Mg B 2,{},"{'Mg': 1, 'B': 2}",39.0,0.0,,,10.1016/s0921-4526(96)00524-8
Be,{},{'Be': 1},26.0,0.0,Elemental,,10.1016/s0921-4526(96)00524-8
Y,{},{'Y': 1},10.0,0.0,,,10.1007/978-3-540-74325-5_26
Na 0.5 Co O 2,{},"{'Na': 0.5, 'Co': 1, 'O': 2}",51.0,0.0,,,
Hg Ba 2 Ca 2 Cu 3 O 8,{},"{'Hg': 1, 'Ba': 2, 'Ca': 2, 'Cu': 3, 'O': 8}",134.0,0.0,,,
Fe Se,{},"{'Fe': 1, 'Se': 1}",100.0,0.0,,SrTiO 3,10.1103/physrevb.91.155106
Fe Se,{},"{'Fe': 1, 'Se': 1}",37.0,0.0,,,10.1103/physrevb.91.155106
Fe Se,{},"{'Fe': 1, 'Se': 1}",9.0,0.0,,,10.1103/physrevb.91.155106
Al Al 2 O 3,{},"{'Al': 3, 'O': 3}",1.2,0.0,,,10.1016/j.physc.2017.03.002
La B 6,{},"{'La': 1, 'B': 6}",0.1,0.0,,,10.1103/physrevb.60.14868
Ce Co 2,{},"{'Ce': 1, 'Co': 2}",1.6,0.0,,,10.1103/physrevb.60.14868
Ga Mn As,{},"{'Ga': 1, 'Mn': 1, 'As': 1}",53.0,0.0,,,10.1103/physrevb.69.155207
(Bi Pb) 2 (Sr La) 2 Cu O 6+δ,{'δ': []},,35.0,0.0,,,10.1103/physrevlett.98.267004
Bi 2 Sr 2 Cu O 6,{},"{'Bi': 2, 'Sr': 2, 'Cu': 1, 'O': 6}",35.0,0.0,,,10.1103/physrevlett.98.267004
(Bi Pb) 2 (Sr La) 2 Cu O 6+δ,{'δ': []},,35.0,0.0,single crystals,,10.1103/physrevlett.98.267004
Fe Se 0.94 Be 0.06,{},"{'Fe': 1, 'Se': 0.94, 'Be': 0.06}",40.0,7.0,,,10.1088/1361-648x/aae3cf
Fe Se,{},"{'Fe': 1, 'Se': 1}",89.0,1.0,,,10.1088/1361-648x/aae3cf
Fe Se,{},"{'Fe': 1, 'Se': 1}",8.0,0.0,,,10.1088/1361-648x/aae3cf
Fe Se,{},"{'Fe': 1, 'Se': 1}",37.0,7.0,,,10.1088/1361-648x/aae3cf
Fe Se 0.94 Be 0.06,{},"{'Fe': 1, 'Se': 0.94, 'Be': 0.06}",0.81,0.0,,,10.1088/1361-648x/aae3cf
Fe Se 0.57 Te 0.43,{},"{'Fe': 1, 'Se': 0.57, 'Te': 0.43}",5.0,0.0,,,10.1088/1361-648x/aae3cf
Fe Se,{},"{'Fe': 1, 'Se': 1}",100.0,0.0,,SrTiO3,10.1088/1361-648x/aae3cf
Fe Se,{},"{'Fe': 1, 'Se': 1}",9.04,0.0,,,10.1088/1361-648x/aae3cf
Fe Se,{},"{'Fe': 1, 'Se': 1}",0.76,0.0,single crystals,,10.1088/1361-648x/aae3cf
Fe Se,{},"{'Fe': 1, 'Se': 1}",109.0,0.0,,,10.1088/1361-648x/aae3cf
Fe Se,{},"{'Fe': 1, 'Se': 1}",10.1,0.0,,,10.1088/1361-648x/aae3cf
Sr Ti O 3,{},"{'Sr': 1, 'Ti': 1, 'O': 3}",37.0,7.0,,,10.1088/1361-648x/aae3cf
Fe Se 0.94 Be 0.06,{},"{'Fe': 1, 'Se': 0.94, 'Be': 0.06}",89.0,1.0,,,10.1088/1361-648x/aae3cf
Ni Te 2,{},"{'Ni': 1, 'Te': 2}",11.3,0.0,bilayer,,
Rb Pt 2 Te 4,{},"{'Rb': 1, 'Pt': 2, 'Te': 4}",8.0,0.0,,,
Pt 2 Te 4,{},"{'Pt': 2, 'Te': 4}",1.1,0.0,,,
Pt Te 2,{},"{'Pt': 1, 'Te': 2}",8.0,0.0,bilayer,,
Pd Te 2,{},"{'Pd': 1, 'Te': 2}",1.0,0.0,,,
Rb Pt 2 Te,{},"{'Rb': 1, 'Pt': 2, 'Te': 1}",6.6,0.0,,,
Ta 2 Pd S 5,{},"{'Ta': 2, 'Pd': 1, 'S': 5}",6.0,0.0,,,10.1088/0953-2048/28/11/115015
Ta 2 Pd Se 5,{},"{'Ta': 2, 'Pd': 1, 'Se': 5}",2.5,0.0,,,10.1088/0953-2048/28/11/115015
Nb 2 Pd Se 5,{},"{'Nb': 2, 'Pd': 1, 'Se': 5}",5.5,0.0,,,10.1088/0953-2048/28/11/115015
Ta 2 Pd Se 5,{},"{'Ta': 2, 'Pd': 1, 'Se': 5}",2.6,0.0,,,10.1088/0953-2048/28/11/115015
Bi 2 Sr 2 Ca Cu 2 O 8,{},"{'Bi': 2, 'Sr': 2, 'Ca': 1, 'Cu': 2, 'O': 8}",85.0,0.0,,,10.1111/j.1151-2916.1991.tb07168.x
Bi 2 Sr 2 Ca 2 Cu 3 O 10,{},"{'Bi': 2, 'Sr': 2, 'Ca': 2, 'Cu': 3, 'O': 10}",110.0,0.0,,,10.1111/j.1151-2916.1991.tb07168.x
Bi 2 Sr 2 Cu O 6,{},"{'Bi': 2, 'Sr': 2, 'Cu': 1, 'O': 6}",20.0,0.0,,,10.1111/j.1151-2916.1991.tb07168.x
B,{},{'B': 1},2.0,0.0,,,10.1111/j.1151-2916.1991.tb07168.x
Nb 2,{},{'Nb': 2},5.0,0.0,,,10.1016/j.physc.2011.07.009
Nb 2 In C,{},"{'Nb': 2, 'In': 1, 'C': 1}",7.5,0.0,,,10.1016/j.physc.2011.07.009
Mo 2 Ga C,{},"{'Mo': 2, 'Ga': 1, 'C': 1}",4.0,0.0,,,10.1016/j.physc.2011.07.009
Fe Te 1-x Se x,{'x': []},,8.0,0.0,,,10.1103/physrevb.84.184521
Y Ba 2 Cu 3 O 6.67,{},"{'Y': 1, 'Ba': 2, 'Cu': 3, 'O': 6.67}",60.0,0.0,,,10.1126/science.1246310
U N 74,{},"{'U': 1, 'N': 74}",74.0,0.0,,,10.1103/physrevb.92.081115
Hg Ba 2 Cu O 4+δ,{'δ': []},,45.0,0.0,single crystals,,10.1103/physrevb.92.081115
Rb 1-x Fe 2-y Se 2,"{'x': [], 'y': []}",,32.0,0.0,,,
Li Fe 0.98 Cu 0.02 As,{},"{'Li': 1, 'Fe': 0.98, 'Cu': 0.02, 'As': 1}",9.0,0.0,,,
Bi 2 Sr 2 Ca 2 Cu 3 O 10+δ,{'δ': []},,105.0,0.0,,,10.1063/1.59596
Bi 2 Sr 2 Ca Cu 2 O 8,{},"{'Bi': 2, 'Sr': 2, 'Ca': 1, 'Cu': 2, 'O': 8}",80.0,0.0,,,10.1063/1.59596
Fe Se,{},"{'Fe': 1, 'Se': 1}",9.0,0.0,,,10.1103/physrevb.97.054306
Fe Se,{},"{'Fe': 1, 'Se': 1}",100.0,0.0,,,10.1103/physrevb.97.054306
Ca 1-x La x Fe As 2,{'x': []},,40.0,0.0,,,10.1103/physrevb.91.081111
Ca x La 1-x Fe As 2,{'x': []},,45.0,0.0,,,10.1103/physrevb.91.081111
Hg Ba 2 Cu O 4+δ,{'δ': []},,97.0,0.0,,,10.1103/physrevb.69.104518
Bi 2 Sr 2 Ca Cu 2 O 8,{},"{'Bi': 2, 'Sr': 2, 'Ca': 1, 'Cu': 2, 'O': 8}",98.0,0.0,,,10.1146/annurev-conmatphys-031115-011401
Nd 1.2 Ba 1.8 Cu 3 O 7,{},"{'Nd': 1.2, 'Ba': 1.8, 'Cu': 3, 'O': 7}",65.0,0.0,,,10.1146/annurev-conmatphys-031115-011401
Hg Ba 2 Cu O 6,{},"{'Hg': 1, 'Ba': 2, 'Cu': 1, 'O': 6}",72.0,0.0,,,10.1146/annurev-conmatphys-031115-011401
Bi 2 Sr 2 Cu O 6,{},"{'Bi': 2, 'Sr': 2, 'Cu': 1, 'O': 6}",15.0,0.0,,,10.1146/annurev-conmatphys-031115-011401
Bi 2 Sr 2 Ca Cu 2 O 8+δ,{'δ': []},,89.0,0.0,,,10.1146/annurev-conmatphys-031115-011401
Nb 0.9 Bi 1.2 Se 3,{},"{'Nb': 0.9, 'Bi': 1.2, 'Se': 3}",2.1,0.0,,,10.3389/fchem.2020.00044
Nb 0.9 Bi 1.2 S 3,{},"{'Nb': 0.9, 'Bi': 1.2, 'S': 3}",0.31,0.0,,,10.3389/fchem.2020.00044
Nb 0.9 Bi 1.2 Se 3,{},"{'Nb': 0.9, 'Bi': 1.2, 'Se': 3}",3.2,0.0,,,10.3389/fchem.2020.00044
Ce Co In 5,{},"{'Ce': 1, 'Co': 1, 'In': 5}",2.3,0.0,,,10.1103/physrevlett.104.216403
Ba Ti 2 (Sb 1-x Bi x) 2 O,{'x': [0.16]},"{'Ba': 1, 'Ti': 2, 'Sb': 1.68, 'Bi': 0.32, 'O': 1}",6.0,0.0,,,10.1088/0256-307x/31/7/077401
Ba Ti 2 (Sb 1-x Bi x) 2 O,{'x': [0.16]},"{'Ba': 1, 'Ti': 2, 'Sb': 1.68, 'Bi': 0.32, 'O': 1}",3.4,0.0,,,10.1088/0256-307x/31/7/077401
Ba Bi 3,{},"{'Ba': 1, 'Bi': 3}",6.0,0.0,,,10.1088/0256-307x/31/7/077401
Bi,{},{'Bi': 1},6.0,0.0,,,10.1088/0256-307x/31/7/077401
Ba Ti 2 (Sb 0.84 Bi 0.16) 2 O,{},"{'Ba': 1, 'Ti': 2, 'Sb': 1.68, 'Bi': 0.32, 'O': 1}",3.4,0.0,,,10.1088/0256-307x/31/7/077401
Ba Ti 2 (Sb 0.84 Bi 0.16) 2 O,{},"{'Ba': 1, 'Ti': 2, 'Sb': 1.68, 'Bi': 0.32, 'O': 1}",6.0,0.0,,,10.1088/0256-307x/31/7/077401
Ba Bi 3,{},"{'Ba': 1, 'Bi': 3}",5.69,0.0,,,10.1088/0256-307x/31/7/077401
Bi 2 Sr 2 Ca Cu 2 O 8+δ,{'δ': []},,63.0,0.0,,,10.1103/physrevb.72.092504
Mg B 2,{},"{'Mg': 1, 'B': 2}",40.0,0.0,,,10.1103/physrevb.68.132503
Li Ho 0.44 Y 0.56 F 4,{},"{'Li': 1, 'Ho': 0.44, 'Y': 0.56, 'F': 4}",0.673,0.0,,,10.1126/science.284.5415.779
Eu Fe 2 As 2,{},"{'Eu': 1, 'Fe': 2, 'As': 2}",15.0,0.0,,,10.1103/physrevb.100.224503
Ho 1.2 Mo 6 S 8,{},"{'Ho': 1.2, 'Mo': 6, 'S': 8}",1.2,0.0,,,10.1103/physrevb.100.224503
Sr 2 Ru O 4,{},"{'Sr': 2, 'Ru': 1, 'O': 4}",1.4,0.0,,,10.1103/physrevb.74.035115
Ce Fe As O,{},"{'Ce': 1, 'Fe': 1, 'As': 1, 'O': 1}",136.0,0.0,,,10.1088/1367-2630/11/2/025011
La Fe As O,{},"{'La': 1, 'Fe': 1, 'As': 1, 'O': 1}",26.0,0.0,,,10.1088/1367-2630/11/2/025011
K 1-x Fe 2-y Se 2,"{'x': [], 'y': []}",,32.0,0.0,,,10.1073/pnas.1318045111
Cs 1-x Fe 2-y Se 2,"{'x': [], 'y': []}",,32.0,0.0,,,10.1073/pnas.1318045111
Rb 1-x Fe 2-y Se 2,"{'x': [], 'y': []}",,32.0,0.0,,,10.1073/pnas.1318045111
Tl 1-x Fe 2-y Se 2,"{'x': [], 'y': []}",,32.0,0.0,,,10.1073/pnas.1318045111
Fe Se,{},"{'Fe': 1, 'Se': 1}",7.5,0.0,thin films,,10.1088/0953-2048/26/5/055014
Y Ba 2 Cu 3 O 6.5,{},"{'Y': 1, 'Ba': 2, 'Cu': 3, 'O': 6.5}",52.0,0.0,single crystal,,10.1143/jpsj.71.265
Fe Se,{},"{'Fe': 1, 'Se': 1}",100.0,0.0,single layer,,10.3389/fphy.2020.00002
Y Ba 2 Cu 3 O 7,{},"{'Y': 1, 'Ba': 2, 'Cu': 3, 'O': 7}",90.0,0.0,,,10.1103/physrevb.62.8703
Rb,{},{'Rb': 1},4.5,0.0,,,10.1016/j.physc.2007.03.023
Cd 2 Re 2 O 7,{},"{'Cd': 2, 'Re': 2, 'O': 7}",1.0,0.0,,,10.1016/j.physc.2007.03.023
K Os 2 O 6,{},"{'K': 1, 'Os': 2, 'O': 6}",5.2,0.0,,,10.1016/j.physc.2007.03.023
Bi 2 Sr 2 Ca Cu 2 O 8,{},"{'Bi': 2, 'Sr': 2, 'Ca': 1, 'Cu': 2, 'O': 8}",83.0,0.0,,,10.1088/0031-8949/85/03/035704
Fe Se,{},"{'Fe': 1, 'Se': 1}",8.0,0.0,,,10.1103/physrevb.100.024514
Li Fe 0.88 Co 0.12 As,{},"{'Li': 1, 'Fe': 0.88, 'Co': 0.12, 'As': 1}",4.0,0.0,,,10.1103/physrevb.89.220503
Li Fe As,{},"{'Li': 1, 'Fe': 1, 'As': 1}",18.0,0.0,,,10.1103/physrevb.89.220503
Ce Rh In 5,{},"{'Ce': 1, 'Rh': 1, 'In': 5}",2.1,1.6,,,10.1209/epl/i2003-00411-9
Sm Fe As O 1-x F x,{'x': []},,55.0,0.0,,,10.1016/j.physc.2009.03.024
Eu 0.7 Na 0.3 Fe 2 As 2,{},"{'Eu': 0.7, 'Na': 0.3, 'Fe': 2, 'As': 2}",15.0,0.0,,,10.1016/j.physc.2009.03.024
La Fe As O 1-x F x,{'x': []},,26.0,0.0,,,10.1016/j.physc.2009.03.024
Sm Co Fe As O,{},"{'Sm': 1, 'Co': 1, 'Fe': 1, 'As': 1, 'O': 1}",35.0,0.0,,,10.1016/j.physc.2009.03.024
Eu 0.5 K 0.5 Fe 2 As 2,{},"{'Eu': 0.5, 'K': 0.5, 'Fe': 2, 'As': 2}",34.7,0.0,,,10.1016/j.physc.2009.03.024
Fe Se,{},"{'Fe': 1, 'Se': 1}",8.0,0.0,,,10.1103/physrevb.87.184105
Ce Co In 5,{},"{'Ce': 1, 'Co': 1, 'In': 5}",2.3,0.0,,,10.1088/1367-2630/18/9/093031
Ca 2 Cu O 2 Cl 2,{},"{'Ca': 2, 'Cu': 1, 'O': 2, 'Cl': 2}",26.0,0.0,,,10.1103/physrevb.78.035132
La 2 Cu O 4,{},"{'La': 2, 'Cu': 1, 'O': 4}",40.0,0.0,,,10.1103/physrevb.78.035132
Tl 2 Ba 2 Cu O 6,{},"{'Tl': 2, 'Ba': 2, 'Cu': 1, 'O': 6}",90.0,0.0,,,10.1103/physrevb.78.035132
Tl 2 Ba 2 Cu O 6,{},"{'Tl': 2, 'Ba': 2, 'Cu': 1, 'O': 6}",85.0,0.0,,,10.1103/physrevb.78.035132
Hg Ba 2 Cu O 4,{},"{'Hg': 1, 'Ba': 2, 'Cu': 1, 'O': 4}",90.0,0.0,,,10.1103/physrevb.78.035132
Tl Ba La Cu O 5,{},"{'Tl': 1, 'Ba': 1, 'La': 1, 'Cu': 1, 'O': 5}",52.0,0.0,,,10.1103/physrevb.78.035132
Fe 1.11 Te 0.6 Se 0.4,{},"{'Fe': 1.11, 'Te': 0.6, 'Se': 0.4}",14.0,0.0,,,10.1103/physrevb.83.174506
Li Fe As,{},"{'Li': 1, 'Fe': 1, 'As': 1}",18.0,0.0,,,10.1103/physrevb.83.174506
Mg B 2,{},"{'Mg': 1, 'B': 2}",38.0,0.0,,,10.1063/1.1519965
Y Ba 2 Cu 3 O 6+δ,{'δ': []},,90.0,0.0,,,
P r Ba 2 Cu 3 O 7-δ,"{'δ': [], 'r': []}",,90.0,0.0,,,10.1016/s0921-4534(97)01652-3
Nb N,{},"{'Nb': 1, 'N': 1}",12.44,0.0,single crystal,,10.1209/0295-5075/128/27001
Pb,{},{'Pb': 1},7.2,0.0,,,10.1038/s41535-018-0133-0
Hg,{},{'Hg': 1},4.15,0.0,,,10.1038/s41535-018-0133-0
Nb,{},{'Nb': 1},9.25,0.0,,,10.1038/s41535-018-0133-0
H 3 S,{},"{'H': 3, 'S': 1}",203.0,155.0,,,10.1038/s41535-018-0133-0
Nb 3 Ga,{},"{'Nb': 3, 'Ga': 1}",17.9,0.0,,,10.1038/s41535-018-0133-0
Mg B 2,{},"{'Mg': 1, 'B': 2}",39.0,0.0,,,10.1103/physrevb.65.020507
Ba 1-x K x Fe 2 As 2,{'x': [0.4]},"{'Ba': 0.6, 'K': 0.4, 'Fe': 2, 'As': 2}",39.0,0.0,,,
Fe Se,{},"{'Fe': 1, 'Se': 1}",30.0,0.0,film,SrTiO 3,
La O Bi S 2,{},"{'La': 1, 'O': 1, 'Bi': 1, 'S': 2}",10.6,0.0,,,10.1088/0953-8984/25/31/312202
Bi 4 O 4 S 3,{},"{'Bi': 4, 'O': 4, 'S': 3}",5.0,0.0,,,10.1088/0953-8984/25/31/312202
La Fe As O 1-x F x,{'x': []},,26.0,0.0,,,10.1143/jpsj.77.114709
Mg B 2,{},"{'Mg': 1, 'B': 2}",40.0,0.0,,,10.7566/jpsj.85.074707
Pr Fe As O 0.7,{},"{'Pr': 1, 'Fe': 1, 'As': 1, 'O': 0.7}",42.0,0.0,,,10.1103/physrevb.84.014504
La Fe P O,{},"{'La': 1, 'Fe': 1, 'P': 1, 'O': 1}",6.0,0.0,,,10.1103/physrevb.84.014504
Pr Fe As O 0.7,{},"{'Pr': 1, 'Fe': 1, 'As': 1, 'O': 0.7}",42.0,0.0,single crystals,,10.1103/physrevb.84.014504
Er Ni 2 B 2 C,{},"{'Er': 1, 'Ni': 2, 'B': 2, 'C': 1}",11.0,0.0,,,10.1103/physrevlett.109.027001
O P Bi 2 Sr 2-y La y Cu O 6,{'y': []},,28.0,0.0,,,10.1007/bf01316701
Bi,{},{'Bi': 1},50.0,0.0,crystal,,10.1007/bf01316701
Bi 2 Sr 2 Ca 2 Cu 3 O 10+δ,{'δ': []},,109.0,0.0,,,10.1007/bf01316701
O V Bi 2 Sr 2-y La y Cu O 6,{'y': []},,22.0,0.0,,,10.1007/bf01316701
Bi,{},{'Bi': 1},50.0,0.0,,,10.1007/bf01316701
Bi,{},{'Bi': 1},22.0,0.0,,,10.1007/bf01316701
Bi 2 Sr 2 Ca Cu 2 O 8+δ,{'δ': []},,91.0,0.0,bilayer,,10.1007/bf01316701
Bi,{},{'Bi': 1},91.0,0.0,,,10.1007/bf01316701
La,{},{'La': 1},22.0,0.0,,,10.1007/bf01316701
Bi,{},{'Bi': 1},74.0,0.0,thin-film,,10.1007/bf01316701
Bi,{},{'Bi': 1},109.0,0.0,,,10.1007/bf01316701
Bi,{},{'Bi': 1},28.0,0.0,,,10.1007/bf01316701
Y Ba 2 Cu 3 O 7,{},"{'Y': 1, 'Ba': 2, 'Cu': 3, 'O': 7}",92.12,0.0,,,10.1016/s0921-4534(00)00397-x
Fe Se,{},"{'Fe': 1, 'Se': 1}",8.0,0.0,,,10.1021/nn400012q
Fe Te 0.43 Se 0.57,{},"{'Fe': 1, 'Te': 0.43, 'Se': 0.57}",40.0,0.0,,,10.1021/nn400012q
La Fe Si H,{},"{'La': 1, 'Fe': 1, 'Si': 1, 'H': 1}",10.0,0.0,,,
La (O 1-x F x) Fe As,{'x': [0.05]},"{'La': 1, 'O': 0.95, 'F': 0.05, 'Fe': 1, 'As': 1}",26.0,0.0,,,10.1088/0256-307x/25/6/082
La Pt 4 Ge 12,{},"{'La': 1, 'Pt': 4, 'Ge': 12}",8.2,0.0,crystals,,10.1103/physrevb.92.220503
Ca K Fe 4 As 4,{},"{'Ca': 1, 'K': 1, 'Fe': 4, 'As': 4}",25.0,0.0,single crystalline,,10.2172/1343722
Bi 2 Sr 2 Ca Cu 2 O 8+δ,{'δ': []},,91.0,0.0,,,10.1103/physrevb.80.184513
Pb In,{},"{'Pb': 1, 'In': 1}",7.2,0.0,,,10.1016/j.physc.2012.03.030
K Cu F 3,{},"{'K': 1, 'Cu': 1, 'F': 3}",38.0,0.0,,,
Hg Ba 2 Ca 4 Cu 5 O y,{'y': []},,108.0,0.0,,,10.1103/physrevlett.98.257002
Y Ba 2 Cu 3 O 6.63,{},"{'Y': 1, 'Ba': 2, 'Cu': 3, 'O': 6.63}",62.0,0.0,,,10.1103/physrevlett.98.257002
Mg B 2,{},"{'Mg': 1, 'B': 2}",39.0,0.0,,,10.1103/physrevb.68.224509
Bi 2.23 Sr 1.9 Ca 0.96 Cu 2 O 8+δ,{'δ': []},,77.0,0.0,single crystals,,
Bi 2 Sr 2 Ca 0.92 Y 0.08 Cu 2 O 8+δ,{'δ': []},,96.0,0.0,single crystal,,
Bi 2.23 Sr 1.9 Ca 0.96 Cu 2 O 8+δ,{'δ': []},,77.0,0.0,,,
(Bi Pb) 2 Sr 2 Ca Cu 2 O 8+δ,{'δ': []},,77.0,0.0,crystal,,10.1007/3-540-68133-7_11
Nb C,{},"{'Nb': 1, 'C': 1}",11.2,0.0,,,
Nb C 1-x N x,{'x': []},,11.2,0.0,,,
Nb N,{},"{'Nb': 1, 'N': 1}",17.3,0.0,,,
Ce Co In 5,{},"{'Ce': 1, 'Co': 1, 'In': 5}",2.3,0.0,,,10.1103/physrevb.88.165118
La x Fe As 2,{'x': []},,42.6,0.0,,,10.1209/0295-5075/109/37005
Ca 1-x La x Fe As 2,{'x': []},,43.0,0.0,,,10.1209/0295-5075/109/37005
Ca 1-x Pr x Fe As 2,{'x': []},,43.0,0.0,,,10.1209/0295-5075/109/37005
I B S s,{'s': []},,55.0,0.0,,,10.1209/0295-5075/109/37005
Ba Fe 2 As 2,{},"{'Ba': 1, 'Fe': 2, 'As': 2}",40.0,0.0,,,10.1103/physrevb.94.195142
H 2 S,{},"{'H': 2, 'S': 1}",150.0,170.0,,,10.1103/physrevlett.117.075503