Material,Substitutions,Composition,Tc (K),Pressure (GPa),Shape,Substrate,DOI
Bi 2 Sr 2 Ca Cu 2 O 8,{},"{'Bi': 2, 'Sr': 2, 'Ca': 1, 'Cu': 2, 'O': 8}",87.0,0.0,crystal,,
Ba 1-2y K 2y Fe 2 As 2,{'y': []},,38.0,0.0,,,10.1103/physrevb.79.144421
La Fe As O 1-x F x,{'x': []},,27.0,0.0,,,10.1103/physrevb.79.144421
Sr 2 Ca Cu 2 O 8+δ,{'δ': []},,95.0,0.0,,,10.1088/0034-4885/71/6/062501
Bi 2 Sr 2 Ca Cu 2 O 8,{},"{'Bi': 2, 'Sr': 2, 'Ca': 1, 'Cu': 2, 'O': 8}",95.0,0.0,,,10.1088/0034-4885/71/6/062501
Ho x Mo 6 S 8,{'x': []},,1.8,0.0,,,10.1088/1742-6596/150/5/052218
Er Rh 4 B 4,{},"{'Er': 1, 'Rh': 4, 'B': 4}",8.5,0.0,,,10.1088/1742-6596/150/5/052218
K 0.948 Ni 1.86 Se 2,{},"{'K': 0.948, 'Ni': 1.86, 'Se': 2}",0.3,0.0,single crystals,,
K 0.95 Ni 1.86 Se 2,{},"{'K': 0.95, 'Ni': 1.86, 'Se': 2}",0.3,0.0,single crystal,,
S Cs,{},"{'S': 1, 'Cs': 1}",5.0,0.0,,,
Nb Ti,{},"{'Nb': 1, 'Ti': 1}",9.0,0.0,,,10.1038/nmat2991
Ba 0.55 K 0.45 Fe 2 As 2,{},"{'Ba': 0.55, 'K': 0.45, 'Fe': 2, 'As': 2}",32.0,0.0,,,10.1038/nmat2991
Nd Fe As O 0.7 F 0.3,{},"{'Nd': 1, 'Fe': 1, 'As': 1, 'O': 0.7, 'F': 0.3}",42.0,0.0,,,10.1038/nmat2991
Y Ba 2 Cu 3 O 7,{},"{'Y': 1, 'Ba': 2, 'Cu': 3, 'O': 7}",90.0,0.0,,,10.1038/nmat2991
Mg B 2,{},"{'Mg': 1, 'B': 2}",40.0,0.0,,,10.1038/nmat2991
Fe Se 1-x Te x,{'x': []},,16.0,0.0,,,10.1038/nmat2991
Nb 47,{},{'Nb': 47},9.0,0.0,,,10.1038/nmat2991
Re Fe As O 1-x F x,{'x': []},,55.0,0.0,,,10.1038/nmat2991
Co Fe As,{},"{'Co': 1, 'Fe': 1, 'As': 1}",18.0,0.0,,,10.1038/nmat2991
K Fe As,{},"{'K': 1, 'Fe': 1, 'As': 1}",18.0,0.0,,,10.1038/nmat2991
Li Fe As,{},"{'Li': 1, 'Fe': 1, 'As': 1}",18.0,0.0,,,10.1038/nmat2991
Na Fe As,{},"{'Na': 1, 'Fe': 1, 'As': 1}",18.0,0.0,,,10.1038/nmat2991
(Bi Pb) 2 Sr 2 Ca 2 Cu 3 O 8+x,{'x': []},,108.0,0.0,,,10.1038/nmat2991
Nb 3 Sn,{},"{'Nb': 3, 'Sn': 1}",18.0,0.0,,,10.1038/nmat2991
Pb Mo 6 S 8,{},"{'Pb': 1, 'Mo': 6, 'S': 8}",23.0,0.0,,,10.1038/nmat2991
Tl,{},{'Tl': 1},2.28,0.0,,,10.1103/physrevb.93.241103
Bi 2 Te 3,{},"{'Bi': 2, 'Te': 3}",2.28,0.0,,,10.1103/physrevb.93.241103
Y Ba 2 Cu 3 O 6.66,{},"{'Y': 1, 'Ba': 2, 'Cu': 3, 'O': 6.66}",60.0,0.0,,,10.1088/0034-4885/71/2/026501
Ce Ir In 5,{},"{'Ce': 1, 'Ir': 1, 'In': 5}",0.4,0.0,,,10.1088/0034-4885/71/2/026501
Ce Co In 5,{},"{'Ce': 1, 'Co': 1, 'In': 5}",2.3,0.0,,,10.1088/0034-4885/71/2/026501
Bi 2 Sr 2 Ca Cu 2 O 8,{},"{'Bi': 2, 'Sr': 2, 'Ca': 1, 'Cu': 2, 'O': 8}",10.0,0.0,,,10.1088/0034-4885/71/2/026501
Mg B 2,{},"{'Mg': 1, 'B': 2}",39.0,0.0,,,10.1088/0953-2048/17/7/020
Sr Ti O 3,{},"{'Sr': 1, 'Ti': 1, 'O': 3}",0.2,0.0,,,10.1088/1361-6668/ab73ef
Ba (Fe 1-x Co x) 2 As 2,{'x': []},,20.5,0.0,films,,10.1088/1361-6668/ab73ef
Ba (Fe 1-x Co x) 2 As 2,{'x': []},,22.0,0.0,,,10.1088/1361-6668/ab73ef
Ba Fe 2 (As 1-x P x) 2,{'x': []},,17.0,0.0,,,10.1088/1361-6668/ab73ef
Ba (Fe 1-x Co x) 2 As 2,{'x': []},,20.7,0.0,films,,10.1088/1361-6668/ab73ef
Mg O,{},"{'Mg': 1, 'O': 1}",20.7,0.0,films,,10.1088/1361-6668/ab73ef
Fe Te 0.6 Se 0.4,{},"{'Fe': 1, 'Te': 0.6, 'Se': 0.4}",14.0,0.0,,,10.1103/physrevb.81.220503
Fe Se,{},"{'Fe': 1, 'Se': 1}",14.0,0.0,,,
Fe Te 1-x Se x,{'x': []},,15.0,0.0,,,10.1088/0953-2048/28/4/045018
U Te 2,{},"{'U': 1, 'Te': 2}",1.6,0.0,,,10.1088/0953-8984/21/16/164203
U Te 2,{},"{'U': 1, 'Te': 2}",1.4,0.0,,,10.1088/0953-8984/21/16/164203
U Co Ge,{},"{'U': 1, 'Co': 1, 'Ge': 1}",20.0,0.0,,,10.1088/0953-8984/21/16/164203
U Sc,{},"{'U': 1, 'Sc': 1}",2.7,0.0,,,10.1103/physrevlett.122.147001
Th Co C 2,{},"{'Th': 1, 'Co': 1, 'C': 2}",2.3,0.0,,,10.1103/physrevlett.122.147001
Ce Pt 3 Si,{},"{'Ce': 1, 'Pt': 3, 'Si': 1}",0.75,0.0,,,10.1103/physrevlett.122.147001
Fe 1+y Te 0.9 Se 0.1,{'y': []},,2.0,0.0,crystals,,10.1103/physrevb.84.224506
Fe Te 0.9 Se 0.1,{},"{'Fe': 1, 'Te': 0.9, 'Se': 0.1}",9.0,0.0,crystals,,10.1103/physrevb.84.224506
Nb O,{},"{'Nb': 1, 'O': 1}",1.4,0.0,,,10.1103/physrevb.79.134518
Nb N,{},"{'Nb': 1, 'N': 1}",12.0,0.0,thin film,,10.1103/physrevlett.110.126406
Fe Se,{},"{'Fe': 1, 'Se': 1}",45.0,0.0,films,,10.7566/jpsj.85.103702
Fe Se,{},"{'Fe': 1, 'Se': 1}",50.0,0.0,films,,10.7566/jpsj.85.103702
Li x (C 8 H 11 N) y Fe 1-z Se,"{'z': [], 'x': [], 'y': []}",,40.0,0.0,,,10.7566/jpsj.85.103702
Na x (C 8 H 11 N) y Fe 1-z Se,"{'z': [], 'x': [], 'y': []}",,40.0,0.0,,,10.7566/jpsj.85.103702
Al,{},{'Al': 1},1.2,0.0,film,,10.1006/spmi.1999.0712
Th Co C 2,{},"{'Th': 1, 'Co': 1, 'C': 2}",2.5,0.0,,,
Li,{},{'Li': 1},0.02,0.0,,,
La Ni C 2,{},"{'La': 1, 'Ni': 1, 'C': 2}",2.8,0.0,,,
Mg C Ni 3,{},"{'Mg': 1, 'C': 1, 'Ni': 3}",0.3,0.0,,,
Nb Se 2,{},"{'Nb': 1, 'Se': 2}",7.2,0.0,,,10.1103/physrevlett.80.2921
V 3 Si,{},"{'V': 3, 'Si': 1}",17.0,0.0,,,10.1103/physrevlett.80.2921
Lu Ni 2 B 2 C,{},"{'Lu': 1, 'Ni': 2, 'B': 2, 'C': 1}",16.0,0.0,,,10.1103/physrevlett.80.2921
Li Ti 2 O 4,{},"{'Li': 1, 'Ti': 2, 'O': 4}",11.0,0.0,,,10.1038/ncomms8183
Ca 3 Ir 4 Sn 13,{},"{'Ca': 3, 'Ir': 4, 'Sn': 13}",5.0,0.0,,,10.1103/physrevb.92.195122
Ca 3 Ir 4 Sn 13,{},"{'Ca': 3, 'Ir': 4, 'Sn': 13}",8.9,4.0,,,10.1103/physrevb.92.195122
Sr 3 Ir 4 Sn 13,{},"{'Sr': 3, 'Ir': 4, 'Sn': 13}",7.0,0.0,,,10.1103/physrevb.92.195122
Ce Co In 5,{},"{'Ce': 1, 'Co': 1, 'In': 5}",2.3,0.0,,,10.1103/physrevlett.86.5152
Y Ba 2 Cu 3 O 7-x,{'x': []},,100.0,0.0,,,10.1016/s0921-4526(99)02125-0
Mg B 2,{},"{'Mg': 1, 'B': 2}",39.0,0.0,Epitaxial thin films,,10.1016/s0921-4526(99)02125-0
Mg B 2,{},"{'Mg': 1, 'B': 2}",39.0,0.0,film,,10.1016/s0921-4526(99)02125-0
Al 2 O 3,{},"{'Al': 2, 'O': 3}",39.0,0.0,film,,10.1016/s0921-4526(99)02125-0
Mg B 2,{},"{'Mg': 1, 'B': 2}",39.0,0.0,,,10.1016/s0921-4526(99)02125-0
Mg B 2,{},"{'Mg': 1, 'B': 2}",30.0,0.0,thin films,,10.1016/s0921-4526(99)02125-0
Li Fe As,{},"{'Li': 1, 'Fe': 1, 'As': 1}",16.5,0.0,crystal,,10.1103/physrevb.88.045105
Nb 3 Sn,{},"{'Nb': 3, 'Sn': 1}",20.0,0.0,single crystal,,10.1016/j.physc.2007.04.161
Ba Fe 2 (As 1-x P x) 2,{'x': [0.47]},"{'Ba': 1, 'Fe': 2, 'As': 1.06, 'P': 0.94}",17.5,0.0,,,
Li Fe P,{},"{'Li': 1, 'Fe': 1, 'P': 1}",7.0,0.0,,,
La Fe P O,{},"{'La': 1, 'Fe': 1, 'P': 1, 'O': 1}",7.0,0.0,,,
Y Ba 2 Cu 3 O y,{'y': []},,60.0,0.0,crystals,,10.1103/physrevb.85.224524
Y Ba 2 Cu 3 O 6+x,{'x': []},,93.0,0.0,,,10.1103/physrevlett.88.057003
La Fe As O 1-x F x,{'x': []},,26.0,0.0,,,10.1103/physrevb.79.174523
Gd 1-x Th x Fe As O 6,{'x': []},,56.0,0.0,,,10.1103/physrevb.79.174523
La Fe As O 1-x F x,{'x': []},,43.0,4.0,,,10.1103/physrevb.79.174523
Pr 2,{},{'Pr': 2},52.0,0.0,,,10.1103/physrevb.79.174523
La Fe As O 1-δ,{'δ': []},,50.0,1.5,,,10.1103/physrevb.79.174523
Fe Se 0.4 Te 0.6,{},"{'Fe': 1, 'Se': 0.4, 'Te': 0.6}",14.0,0.0,,,10.1103/physrevlett.103.067008
S C,{},"{'S': 1, 'C': 1}",14.0,0.0,,,10.1103/physrevlett.103.067008
Mg B 2,{},"{'Mg': 1, 'B': 2}",39.0,0.0,films,,10.1038/nmat703
Mg B B 2,{},"{'Mg': 1, 'B': 3}",40.5,0.0,thin films,Al 2 O 3,10.1002/cvde.200706636
Mg B 2,{},"{'Mg': 1, 'B': 2}",39.0,0.0,,,10.1002/cvde.200706636
Mg B 2,{},"{'Mg': 1, 'B': 2}",40.0,0.0,,,10.1016/j.ssc.2004.11.037
La O 0.5 F 0.5 Bi S 2,{},"{'La': 1, 'O': 0.5, 'F': 0.5, 'Bi': 1, 'S': 2}",8.5,0.0,,,
La O 0.5 F 0.5 Bi S 2,{},"{'La': 1, 'O': 0.5, 'F': 0.5, 'Bi': 1, 'S': 2}",11.0,0.0,,,
La O 0.5 F 0.5 Bi S 2,{},"{'La': 1, 'O': 0.5, 'F': 0.5, 'Bi': 1, 'S': 2}",3.0,0.0,,,
La O 1-x F x Bi S 2,{'x': []},,3.0,0.0,single crystals,,
La O 0.5 F 0.5 Bi S 2,{},"{'La': 1, 'O': 0.5, 'F': 0.5, 'Bi': 1, 'S': 2}",10.8,0.0,,,
Bi 2 Sr 2 Ca Cu 2 O 8,{},"{'Bi': 2, 'Sr': 2, 'Ca': 1, 'Cu': 2, 'O': 8}",84.0,0.0,,,10.1103/physrevlett.86.4370
Y Ba 2 Cu 3 O 7,{},"{'Y': 1, 'Ba': 2, 'Cu': 3, 'O': 7}",89.0,0.0,,,10.1103/physrevlett.86.4370
Y Ba 2 Cu 3 O 6.993,{},"{'Y': 1, 'Ba': 2, 'Cu': 3, 'O': 6.993}",89.0,0.0,single crystals,,10.1103/physrevlett.86.4370
Mg B 2,{},"{'Mg': 1, 'B': 2}",39.0,0.0,,,10.1143/jpsj.72.1619
La Ni As O,{},"{'La': 1, 'Ni': 1, 'As': 1, 'O': 1}",2.75,0.0,,,10.1088/0953-2048/29/4/045008
Tl Ni 2 Se 2,{},"{'Tl': 1, 'Ni': 2, 'Se': 2}",3.7,0.0,,,10.1088/0953-2048/29/4/045008
Cs Ni 2 Se 2,{},"{'Cs': 1, 'Ni': 2, 'Se': 2}",2.7,0.0,,,10.1088/0953-2048/29/4/045008
K 0.95 Ni 1.86 Se 2,{},"{'K': 0.95, 'Ni': 1.86, 'Se': 2}",2.7,0.0,single crystal,,10.1088/0953-2048/29/4/045008
Ba Ni 2 As 2,{},"{'Ba': 1, 'Ni': 2, 'As': 2}",0.7,0.0,,,10.1088/0953-2048/29/4/045008
La Ni P O,{},"{'La': 1, 'Ni': 1, 'P': 1, 'O': 1}",3.0,0.0,,,10.1088/0953-2048/29/4/045008
Ba Ni 2 P 2,{},"{'Ba': 1, 'Ni': 2, 'P': 2}",2.4,0.0,,,10.1088/0953-2048/29/4/045008
Sr Ni 2 P 2,{},"{'Sr': 1, 'Ni': 2, 'P': 2}",1.4,0.0,,,10.1088/0953-2048/29/4/045008
K 0.95 Ni 1.86 Se 2,{},"{'K': 0.95, 'Ni': 1.86, 'Se': 2}",0.3,0.0,,,10.1088/0953-2048/29/4/045008
Tl y Fe 2-x Se 2,"{'x': [], 'y': []}",,0.8,0.0,,,10.1088/0953-2048/29/4/045008
K y Fe 2-x Se 2,"{'x': [], 'y': []}",,0.8,0.0,,,10.1088/0953-2048/29/4/045008
Rb y Fe 2-x Se 2,"{'x': [], 'y': []}",,0.8,0.0,,,10.1088/0953-2048/29/4/045008
Cs y Fe 2-x Se 2,"{'x': [], 'y': []}",,0.8,0.0,,,10.1088/0953-2048/29/4/045008
Pr 0.88 La Ce 0.12 Cu O,{},"{'Pr': 0.88, 'La': 1, 'Ce': 0.12, 'Cu': 1, 'O': 1}",21.0,0.0,,,10.1103/physrevb.74.144514
Pr 0.88 La Ce 0.12 Cu O 4-δ,{'δ': []},,24.0,0.0,,,10.1103/physrevb.74.144514
K Fe 2 As 2,{},"{'K': 1, 'Fe': 2, 'As': 2}",5.6,0.0,,,10.1103/physrevb.83.060502
La Fe P O,{},"{'La': 1, 'Fe': 1, 'P': 1, 'O': 1}",18.0,0.0,,,10.1103/physrevb.83.060502
Ba Fe 2 (As 1-x P x) 2,{'x': [0.3]},"{'Ba': 1, 'Fe': 2, 'As': 1.4, 'P': 0.6}",30.0,0.0,Single crystals,,
K Fe 2 As 2,{},"{'K': 1, 'Fe': 2, 'As': 2}",10.0,0.0,,,
Ba Fe 2 (As 1-x P x) 2,{'x': []},,30.0,0.0,,,
Fe Se,{},"{'Fe': 1, 'Se': 1}",8.0,0.0,,,10.1016/j.jssc.2010.01.024
Fe Te 0.5 Se 0.5,{},"{'Fe': 1, 'Te': 0.5, 'Se': 0.5}",10.0,0.0,,,10.1016/j.jssc.2010.01.024
Te,{},{'Te': 1},46.0,0.0,,,10.1016/j.jssc.2010.01.024
Bi 2 Sr 2 Ca Cu 2 O 8,{},"{'Bi': 2, 'Sr': 2, 'Ca': 1, 'Cu': 2, 'O': 8}",72.0,0.0,,,
C 60,{},{'C': 60},11.0,0.0,,,10.1103/physrevb.66.081401
Ce Cu 2 Si 2,{},"{'Ce': 1, 'Cu': 2, 'Si': 2}",0.65,0.0,,,10.1103/physrevb.63.140501
Bi 2 Sr 2 Ca Cu 2 O 8,{},"{'Bi': 2, 'Sr': 2, 'Ca': 1, 'Cu': 2, 'O': 8}",78.0,0.0,crystal,,10.1103/physrevlett.89.107003
Na Fe As,{},"{'Na': 1, 'Fe': 1, 'As': 1}",25.0,0.0,,,10.1103/physrevb.87.134513
Li Fe As,{},"{'Li': 1, 'Fe': 1, 'As': 1}",18.0,0.0,,,10.1103/physrevb.87.134513
Ce Cu 2 Si 2,{},"{'Ce': 1, 'Cu': 2, 'Si': 2}",2.3,0.0,,,10.1103/physrevb.67.014527
Mg C Ni 3,{},"{'Mg': 1, 'C': 1, 'Ni': 3}",7.0,0.0,,,10.1103/physrevb.87.094520
Mg C Ni 2.8,{},"{'Mg': 1, 'C': 1, 'Ni': 2.8}",6.7,4.25,,,10.1103/physrevb.87.094520
Y Ba 2 Cu 3 O 7-x,{'x': []},,82.0,0.0,,,10.1063/1.1787165
La Fe As O 1-x F x,{'x': []},,43.0,0.0,,,10.1103/physrevb.78.180506
Fe Se Te,{},"{'Fe': 1, 'Se': 1, 'Te': 1}",13.5,0.0,film,,10.1063/1.4821959
Fe Se Te,{},"{'Fe': 1, 'Se': 1, 'Te': 1}",13.5,0.0,,,10.1063/1.4821959
Fe Se 0.3 Te 0.7,{},"{'Fe': 1, 'Se': 0.3, 'Te': 0.7}",13.5,0.0,,,10.1063/1.4821959
Fe Se,{},"{'Fe': 1, 'Se': 1}",8.0,0.0,,,10.1063/1.4821959
La Fe As O,{},"{'La': 1, 'Fe': 1, 'As': 1, 'O': 1}",26.0,0.0,,,10.1063/1.4821959
Fe S Cs,{},"{'Fe': 1, 'S': 1, 'Cs': 1}",56.0,0.0,,,10.1088/1361-648x/aa58d2
Fe S Cs,{},"{'Fe': 1, 'S': 1, 'Cs': 1}",35.0,0.0,,,10.1088/1361-648x/aa58d2
Rb Gd 2 Fe 4 As 4 O 2,{},"{'Rb': 1, 'Gd': 2, 'Fe': 4, 'As': 4, 'O': 2}",35.0,0.0,,,10.1088/1361-648x/aa58d2
(La 1-x Sr x) O Fe As,{'x': []},,25.0,0.0,,,10.1088/1361-648x/aa58d2
Fe 2 As 2,{},"{'Fe': 2, 'As': 2}",25.0,0.0,,,10.1088/1361-648x/aa58d2
Fe S Cs,{},"{'Fe': 1, 'S': 1, 'Cs': 1}",38.0,0.0,,,10.1088/1361-648x/aa58d2
Fe 2 As 2,{},"{'Fe': 2, 'As': 2}",34.0,0.0,,,10.1038/srep35365
Pt 4 As 8,{},"{'Pt': 4, 'As': 8}",31.0,0.0,,,10.1038/srep35365
Ca 10 Pt 4 As 8 (Fe 2-x Pt x As 2) 5,{'x': []},,34.0,0.0,single crystals,,10.1038/srep35365
Ca 10 Ir 4 As 8 (Fe 2 As 2) 5,{},"{'Ca': 10, 'Ir': 4, 'As': 18, 'Fe': 10}",34.0,0.0,,,10.1038/srep35365
Pt 4 As 8,{},"{'Pt': 4, 'As': 8}",38.0,0.0,,,10.1038/srep35365
Sm Fe As O 1-x F x,{'x': []},,55.0,0.0,,,10.1088/0953-2048/22/7/075023
La Fe As O 1-x F x,{'x': []},,26.0,0.0,,,10.1088/0953-2048/22/7/075023
Sm (O 1-x F x) Fe As,{'x': []},,43.0,0.0,,,10.1088/0256-307x/26/1/017401
Ce (O 1-x F x) Fe As,{'x': []},,41.0,0.0,,,10.1088/0256-307x/26/1/017401
Ba (Fe 0.92 Co 0.08) 2 As 2,{},"{'Ba': 1, 'Fe': 1.84, 'Co': 0.16, 'As': 2}",25.0,0.0,,,10.1103/physrevb.82.184527
Ba (Fe 0.9 Co 0.1) 2 As 2,{},"{'Ba': 1, 'Fe': 1.8, 'Co': 0.2, 'As': 2}",25.0,0.0,film,,10.1103/physrevb.82.184527
Ba (Fe 0.95 Ni 0.05) 2 As 2,{},"{'Ba': 1, 'Fe': 1.9, 'Ni': 0.1, 'As': 2}",20.0,0.0,,,10.1103/physrevb.82.184527
K 3 C 60,{},"{'K': 3, 'C': 60}",19.3,0.0,,,10.1088/0253-6102/57/5/20
Fe Se,{},"{'Fe': 1, 'Se': 1}",86.0,0.0,,,10.1103/physrevb.93.104502
Fe Se,{},"{'Fe': 1, 'Se': 1}",10.0,0.0,,,10.1103/physrevb.93.104502
Fe Se,{},"{'Fe': 1, 'Se': 1}",9.0,0.0,,,10.1103/physrevb.93.104502
Cd 2 Re 2 O 7,{},"{'Cd': 2, 'Re': 2, 'O': 7}",0.97,0.0,single crystal,,10.1016/j.physc.2007.03.376
Sr 2 Ru O 4,{},"{'Sr': 2, 'Ru': 1, 'O': 4}",0.97,0.0,,,10.1016/j.physc.2007.03.376
Li Ti 2 O 4,{},"{'Li': 1, 'Ti': 2, 'O': 4}",13.7,0.0,,,10.1016/j.physc.2007.03.376
Cd 2 Re 2 O 7,{},"{'Cd': 2, 'Re': 2, 'O': 7}",1.0,0.0,,,10.1016/j.physc.2007.03.376
Sr 2 Ru O 4,{},"{'Sr': 2, 'Ru': 1, 'O': 4}",1.0,0.0,,,10.1016/j.physc.2007.03.376
Al,{},{'Al': 1},1.28,0.0,,,10.1117/12.2055537
Nb Ti N,{},"{'Nb': 1, 'Ti': 1, 'N': 1}",14.0,0.0,,,10.1117/12.2055537
Nb,{},{'Nb': 1},9.2,0.0,,,10.1103/physrevb.73.104507
Zr B 12,{},"{'Zr': 1, 'B': 12}",6.06,0.0,,,10.1103/physrevb.73.104507
Zr B 12,{},"{'Zr': 1, 'B': 12}",9.2,0.0,,,10.1103/physrevb.73.104507
(Tl Rb) 2 Fe 4 Se 5,{},"{'Tl': 2, 'Rb': 2, 'Fe': 4, 'Se': 5}",32.0,0.0,Single crystals,,10.1103/physrevb.87.100501
Bi 2 Sr 2 Ca Cu 2 O 8+δ,{'δ': []},,65.0,0.0,,,10.1103/physrevlett.89.277005
Eu Bi S 2 F,{},"{'Eu': 1, 'Bi': 1, 'S': 2, 'F': 1}",0.3,0.0,,,10.7566/jpsj.84.085003
Ce Ru 2 Ge 2,{},"{'Ce': 1, 'Ru': 2, 'Ge': 2}",8.0,0.0,,,10.1002/pssb.201300005
Na V 2 O 5,{},"{'Na': 1, 'V': 2, 'O': 5}",34.0,0.0,,,10.1103/physrevb.62.r14613
Ba Fe 2-x Ni x As 2,{'x': []},,20.0,0.0,single crystals,,10.1088/1367-2630/11/2/025008
Ba Ni 2 As 2,{},"{'Ba': 1, 'Ni': 2, 'As': 2}",0.7,0.0,,,10.1088/1367-2630/11/2/025008
La 1-x Sr x Fe As O,{'x': []},,25.0,0.0,,,10.1088/1367-2630/11/2/025008
Ba Fe 2-x Co x As 2,{'x': []},,25.0,0.0,,,10.1088/1367-2630/11/2/025008
Zr Te 3,{},"{'Zr': 1, 'Te': 3}",2.0,0.0,,,10.1103/physrevlett.122.017601
H,{},{'H': 1},9.25,0.0,,,10.1140/epjb/e2006-00063-7
La Sr Al O 4,{},"{'La': 1, 'Sr': 1, 'Al': 1, 'O': 4}",2.6,0.0,film,,10.1143/jjap.49.023101
La Sr Al O 4,{},"{'La': 1, 'Sr': 1, 'Al': 1, 'O': 4}",2.6,0.0,,,10.1143/jjap.49.023101
(Ba K) Bi O 3,{},"{'Ba': 1, 'K': 1, 'Bi': 1, 'O': 3}",30.0,0.0,,,10.1103/physrevb.83.224525
Ba (Pb Bi) O 3,{},"{'Ba': 1, 'Pb': 1, 'Bi': 1, 'O': 3}",11.0,0.0,,,10.1103/physrevb.83.224525
Mg B 2,{},"{'Mg': 1, 'B': 2}",39.0,0.0,,,10.1103/physrevb.83.224525
Mg B 2,{},"{'Mg': 1, 'B': 2}",39.0,0.0,,,10.1143/jpsj.71.23
K x Fe 2-y Se 2,"{'x': [], 'y': []}",,30.0,0.0,,,
Ba 2 Cu O 3+δ,{'δ': []},,73.0,0.0,,,
K Fe 2-y Se 2,{'y': []},,14.0,0.0,Single crystals,,10.1103/physrevlett.114.167001
Eu Fe 2 (As 0.8 P 0.2) 2,{},"{'Eu': 1, 'Fe': 2, 'As': 1.6, 'P': 0.4}",24.0,0.0,single crystal,,10.1134/s0021364017020151
Er Ni 2 B 2 C,{},"{'Er': 1, 'Ni': 2, 'B': 2, 'C': 1}",10.5,0.0,"bulk, sin- gle crystals",,10.1134/s0021364017020151
Eu Fe 2 (As 0.79 P 0.21) 2,{},"{'Eu': 1, 'Fe': 2, 'As': 1.58, 'P': 0.42}",22.0,0.0,,,10.1134/s0021364017020151
Eu Fe 2 (As 1-x P x) 2,{'x': [0.14]},"{'Eu': 1, 'Fe': 2, 'As': 1.72, 'P': 0.28}",27.0,0.0,single crystals,,10.1134/s0021364017020151
Eu Fe 2 (As 0.8 P 0.2) 2,{},"{'Eu': 1, 'Fe': 2, 'As': 1.6, 'P': 0.4}",17.7,0.0,single crystal,,10.1134/s0021364017020151
C 60,{},{'C': 60},33.1,0.0,,,10.1021/ja3003217
Y Ba 2 Cu 3 O 7,{},"{'Y': 1, 'Ba': 2, 'Cu': 3, 'O': 7}",84.0,0.0,,,10.1103/physrevb.94.180509
Y Ba 2 Cu 3 O 7,{},"{'Y': 1, 'Ba': 2, 'Cu': 3, 'O': 7}",92.0,0.0,,,10.1103/physrevb.94.180509
La 2-x Sr x Cu O 4,{'x': [0.259]},"{'La': 1.741, 'Sr': 0.259, 'Cu': 1, 'O': 4}",6.5,0.0,,,10.1103/physrevb.94.180509
Mg B 2,{},"{'Mg': 1, 'B': 2}",41.5,0.0,,,10.1103/physrevb.71.012504
Mg B 2,{},"{'Mg': 1, 'B': 2}",39.0,0.0,,,10.1103/physrevb.71.012504
Y H 10,{},"{'Y': 1, 'H': 10}",303.0,400.0,,,
Y H 6,{},"{'Y': 1, 'H': 6}",264.0,120.0,,,
Mg H 6,{},"{'Mg': 1, 'H': 6}",271.0,300.0,,,
H 2 S,{},"{'H': 2, 'S': 1}",203.0,155.0,,,
Ca H 6,{},"{'Ca': 1, 'H': 6}",235.0,150.0,,,
H 2 S,{},"{'H': 2, 'S': 1}",80.0,160.0,,,
Bi 2 Sr 2 Ca Cu 2 O 8+δ,{'δ': []},,10.0,0.0,,,10.1103/physrevb.73.174505
Bi 2 Sr 2 Ca Cu 2 O 8+δ,{'δ': []},,93.0,0.0,,,10.1103/physrevb.73.174505
Ca Fe 2 As 2,{},"{'Ca': 1, 'Fe': 2, 'As': 2}",12.0,5.0,,,10.1016/j.physb.2009.07.117
(Ba 0.55 K 0.45) Fe 2 As 2,{},"{'Ba': 0.55, 'K': 0.45, 'Fe': 2, 'As': 2}",85.0,0.0,,,10.1016/j.physb.2009.07.117
Ca Fe 2 As 2,{},"{'Ca': 1, 'Fe': 2, 'As': 2}",12.0,0.0,,,10.1016/j.physb.2009.07.117
Bi 4 O 4 S 3,{},"{'Bi': 4, 'O': 4, 'S': 3}",4.5,0.0,,,
La O 0.5 F 0.5 Bi S 2,{},"{'La': 1, 'O': 0.5, 'F': 0.5, 'Bi': 1, 'S': 2}",2.5,0.0,,,
La O 0.5 F 0.5 Bi S 2,{},"{'La': 1, 'O': 0.5, 'F': 0.5, 'Bi': 1, 'S': 2}",10.5,0.0,,,
La O 0.5 F 0.5 Bi S 2,{},"{'La': 1, 'O': 0.5, 'F': 0.5, 'Bi': 1, 'S': 2}",2.6,0.0,,,
La O 0.5 F 0.5 Bi S 2,{},"{'La': 1, 'O': 0.5, 'F': 0.5, 'Bi': 1, 'S': 2}",9.6,0.0,,,
(Li Fe) O H Fe Se,{},"{'Li': 1, 'Fe': 2, 'O': 1, 'H': 1, 'Se': 1}",42.0,0.0,single crystal,,10.1088/0256-307x/35/5/057402
(Li Fe) O H Fe Se,{},"{'Li': 1, 'Fe': 2, 'O': 1, 'H': 1, 'Se': 1}",41.0,0.0,single crystal,,10.1088/0256-307x/35/5/057402
(Li Fe) O H Fe Se,{},"{'Li': 1, 'Fe': 2, 'O': 1, 'H': 1, 'Se': 1}",38.0,0.0,,,10.1088/0256-307x/35/5/057402
Fe Se,{},"{'Fe': 1, 'Se': 1}",9.0,0.0,,,10.1088/0256-307x/35/5/057402
(Li Fe) O H Fe Se,{},"{'Li': 1, 'Fe': 2, 'O': 1, 'H': 1, 'Se': 1}",42.0,0.0,,,10.1088/0256-307x/35/5/057402
Fe Se,{},"{'Fe': 1, 'Se': 1}",40.0,0.0,monolayer,,10.1088/0256-307x/35/5/057402
K y Fe 2-x Se 2,"{'x': [], 'y': []}",,30.0,0.0,,,10.1088/0256-307x/35/5/057402
Fe Se,{},"{'Fe': 1, 'Se': 1}",8.0,0.0,,,10.1016/j.ssc.2010.11.030
Se,{},{'Se': 1},8.0,0.0,,,10.1016/j.ssc.2010.11.030
Fe Te 0.6 Se 0.4,{},"{'Fe': 1, 'Te': 0.6, 'Se': 0.4}",14.5,0.0,,,10.1016/j.ssc.2010.11.030
La Fe As O 1-x F x,{'x': []},,26.0,0.0,,,10.1016/j.ssc.2010.11.030
Gd 1-x Th x Fe As,{'x': []},,56.0,0.0,,,10.1016/j.ssc.2010.11.030
Fe Te 0.6 Se 0.4,{},"{'Fe': 1, 'Te': 0.6, 'Se': 0.4}",14.5,0.0,single crystal,,10.1016/j.ssc.2010.11.030
Bi 2 Sr 2 Ca Cu 2 O 8,{},"{'Bi': 2, 'Sr': 2, 'Ca': 1, 'Cu': 2, 'O': 8}",89.0,0.0,,,10.1209/epl/i2001-00452-6
Ca 0.86 Pr 0.14 Fe 2 As 2,{},"{'Ca': 0.86, 'Pr': 0.14, 'Fe': 2, 'As': 2}",45.0,0.0,single crystals,,10.1103/physrevlett.112.047005
Th Cr 2 Si 2,{},"{'Th': 1, 'Cr': 2, 'Si': 2}",45.0,0.0,crystal,,10.1103/physrevlett.112.047005
Sc B 2,{},"{'Sc': 1, 'B': 2}",1.5,0.0,,,10.1088/0953-8984/18/4/024
Sc B 2,{},"{'Sc': 1, 'B': 2}",6.0,0.0,,,10.1088/0953-8984/18/4/024
S,{},{'S': 1},17.0,160.0,,,10.1103/physrevlett.87.147001
Mg B 2,{},"{'Mg': 1, 'B': 2}",39.0,0.0,,,10.1103/physrevlett.87.147001
Ce Co In 5,{},"{'Ce': 1, 'Co': 1, 'In': 5}",2.3,4.0,,,10.1088/0953-8984/16/3/l02
Ba (Bi Pb) O 3,{},"{'Ba': 1, 'Bi': 1, 'Pb': 1, 'O': 3}",30.0,0.0,,,10.1088/1361-648x/ab02ad
Bi 1.7 Pb 0.5 Sr 1.9 Ca Cu 2 O 8+δ,{'δ': []},,91.0,0.0,,,
Bi 2 Sr 2 Ca Cu 2 O 8,{},"{'Bi': 2, 'Sr': 2, 'Ca': 1, 'Cu': 2, 'O': 8}",40.0,0.0,,,
(Tl K) 2 Fe 4 Se 5,{},"{'Tl': 2, 'K': 2, 'Fe': 4, 'Se': 5}",28.0,0.0,,,10.1103/physrevlett.107.137003
Cs 0.8 Fe 2 Se 1.96,{},"{'Cs': 0.8, 'Fe': 2, 'Se': 1.96}",28.5,0.0,,,10.1103/physrevlett.107.137003
(Tl Rb) 2 Fe 4 Se 5,{},"{'Tl': 2, 'Rb': 2, 'Fe': 4, 'Se': 5}",32.0,0.0,,,10.1103/physrevlett.107.137003
Ba Fe 2 As 2,{},"{'Ba': 1, 'Fe': 2, 'As': 2}",30.0,0.0,,,10.1103/physrevlett.107.137003
Cs 2 Fe 4 Se 5,{},"{'Cs': 2, 'Fe': 4, 'Se': 5}",29.0,0.0,,,10.1103/physrevlett.107.137003
Rb 2 Fe 4 Se 5,{},"{'Rb': 2, 'Fe': 4, 'Se': 5}",32.0,0.0,Single crystals,,10.1103/physrevlett.107.137003
(Tl Rb) Fe 1.72 Se 2,{},"{'Tl': 1, 'Rb': 1, 'Fe': 1.72, 'Se': 2}",30.0,0.0,,,10.1103/physrevlett.107.137003
Fe Se,{},"{'Fe': 1, 'Se': 1}",44.0,0.0,,,10.1287/6e17c495-4830-4387-bc4d-9a7e73100767
Fe Se,{},"{'Fe': 1, 'Se': 1}",8.0,0.0,,,10.1287/6e17c495-4830-4387-bc4d-9a7e73100767