Material,Substitutions,Composition,Tc (K),Pressure (GPa),Shape,Substrate,DOI
Ba 0.6 K 0.4 Fe 2 As 2,{},"{'Ba': 0.6, 'K': 0.4, 'Fe': 2, 'As': 2}",37.0,0.0,Single crystals,,
Eu Fe 2 As 2,{},"{'Eu': 1, 'Fe': 2, 'As': 2}",30.0,2.5,,,10.1103/physrevb.83.100501
Eu Fe 2 As 2,{},"{'Eu': 1, 'Fe': 2, 'As': 2}",1.6,2.5,,,10.1103/physrevb.83.100501
B c2-,{'c': []},,1.6,0.0,,,10.1103/physrevb.83.100501
Sr Fe 2 As 2,{},"{'Sr': 1, 'Fe': 2, 'As': 2}",30.0,0.0,,,10.1103/physrevb.83.100501
Eu Fe 2 As 2,{},"{'Eu': 1, 'Fe': 2, 'As': 2}",30.0,0.0,,,10.1103/physrevb.83.100501
B,{},{'B': 1},5.0,0.0,,,10.1103/physrevb.83.100501
Sr Fe 2 As 2,{},"{'Sr': 1, 'Fe': 2, 'As': 2}",30.0,2.5,,,10.1103/physrevb.83.100501
Bi 2 Sr 2 Ca Cu 2 O 8,{},"{'Bi': 2, 'Sr': 2, 'Ca': 1, 'Cu': 2, 'O': 8}",95.0,0.0,,,10.1209/epl/i2002-00434-8
Sr 4 Sc 2 O 6,{},"{'Sr': 4, 'Sc': 2, 'O': 6}",17.0,0.0,,,10.1088/0953-2048/22/7/075008
La Fe P O,{},"{'La': 1, 'Fe': 1, 'P': 1, 'O': 1}",17.0,0.0,,,10.1088/0953-2048/22/7/075008
Mg B 2,{},"{'Mg': 1, 'B': 2}",40.0,0.0,,,10.1103/physrevb.92.054507
Bi 2 Te 3,{},"{'Bi': 2, 'Te': 3}",9.5,13.6,,,
Li Fe As,{},"{'Li': 1, 'Fe': 1, 'As': 1}",12.0,0.0,,,10.1103/physrevb.85.014510
Na 1-δ Fe As,{'δ': []},,25.0,0.0,,,10.1103/physrevb.85.014510
Na Fe 2 As 2,{},"{'Na': 1, 'Fe': 2, 'As': 2}",28.0,0.0,,,10.1103/physrevb.85.014510
Mg B 2,{},"{'Mg': 1, 'B': 2}",39.0,0.0,single crystals,,10.1103/physrevb.84.174517
Fe 1.11 Te 0.6 Se 0.4,{},"{'Fe': 1.11, 'Te': 0.6, 'Se': 0.4}",39.0,0.0,single-crystal,,10.1103/physrevb.84.174517
Fe 1.11 Te 0.6 Se 0.4,{},"{'Fe': 1.11, 'Te': 0.6, 'Se': 0.4}",14.0,0.0,single-crystal,,10.1103/physrevb.84.174517
Fe 1+y Se 0.4 Te 0.6,{'y': [0.06]},"{'Fe': 1.06, 'Se': 0.4, 'Te': 0.6}",14.0,0.0,single crystals,,10.1103/physrevb.84.174517
Fe 1.05 Te 0.89 Se 0.11,{},"{'Fe': 1.05, 'Te': 0.89, 'Se': 0.11}",11.0,0.0,single-crystal,,10.1103/physrevb.84.174517
Ba Fe 2 (As P) 2,{},"{'Ba': 1, 'Fe': 2, 'As': 2, 'P': 2}",30.0,0.0,,,10.1016/j.physc.2011.05.016
Ba Fe 2 (As 0.65 P 0.35) 2,{},"{'Ba': 1, 'Fe': 2, 'As': 1.3, 'P': 0.7}",30.0,0.0,,,10.1016/j.physc.2011.05.016
Li Fe As,{},"{'Li': 1, 'Fe': 1, 'As': 1}",16.0,0.0,,,10.1016/j.physc.2011.05.016
K Fe 2 As 2,{},"{'K': 1, 'Fe': 2, 'As': 2}",3.0,0.0,,,10.1016/j.physc.2011.05.016
(Ba K) Fe 2 As 2,{},"{'Ba': 1, 'K': 1, 'Fe': 2, 'As': 2}",38.0,0.0,,,10.1016/j.physc.2011.05.016
La Fe P O 1-y,{'y': []},,7.0,0.0,,,10.1016/j.physc.2011.05.016
Pr Fe As O 1-y,{'y': []},,35.0,0.0,,,10.1016/j.physc.2011.05.016
La 13 Ga 8 Sb 21,{},"{'La': 13, 'Ga': 8, 'Sb': 21}",2.4,0.0,,,10.1088/0953-2048/26/2/025015
Lu 2 Fe 3 Si 5,{},"{'Lu': 2, 'Fe': 3, 'Si': 5}",3.0,0.0,,,10.1088/0953-2048/26/2/025015
In 2 Mo 6 Se 6,{},"{'In': 2, 'Mo': 6, 'Se': 6}",2.9,0.0,,,10.1088/0953-2048/26/2/025015
Ba 1-x K x Bi O 3,{'x': []},,30.0,0.0,,,10.1088/0953-2048/26/2/025015
Lu 2 Fe 3 Si 5,{},"{'Lu': 2, 'Fe': 3, 'Si': 5}",6.1,0.0,,,10.1088/0953-2048/26/2/025015
Zr Ru Si,{},"{'Zr': 1, 'Ru': 1, 'Si': 1}",1.2,0.0,,,10.1088/0953-2048/26/2/025015
Nb 3 Si and Nb 3 Sb,"{'n': [], 'a': [], 'd': []}",,23.0,0.0,,,10.1088/0953-2048/26/2/025015
Tl 2 Mo 6 Se 6,{},"{'Tl': 2, 'Mo': 6, 'Se': 6}",6.5,0.0,,,10.1088/0953-2048/26/2/025015
V 3 Si,{},"{'V': 3, 'Si': 1}",17.0,0.0,,,10.1088/0953-2048/26/2/025015
Ce Cu 2 (Si 0.98 Ge 0.02) 2,{},"{'Ce': 1, 'Cu': 2, 'Si': 1.96, 'Ge': 0.04}",0.4,0.0,,,10.1143/jpsj.73.194
Ce Cu 2 Si 2,{},"{'Ce': 1, 'Cu': 2, 'Si': 2}",0.65,0.0,,,10.1143/jpsj.73.194
Ce Rh In 5,{},"{'Ce': 1, 'Rh': 1, 'In': 5}",2.1,2.1,,,10.1143/jpsj.73.194
Ce In 3,{},"{'Ce': 1, 'In': 3}",0.1,2.65,,,10.1143/jpsj.73.194
Ce 0.99 Cu 2.02 Si 2,{},"{'Ce': 0.99, 'Cu': 2.02, 'Si': 2}",0.45,0.91,,,10.1143/jpsj.73.194
Ce Cu 2 (Si 0.98 Ge 0.02) 2,{},"{'Ce': 1, 'Cu': 2, 'Si': 1.96, 'Ge': 0.04}",1.5,0.0,,,10.1143/jpsj.73.194
Li Fe As,{},"{'Li': 1, 'Fe': 1, 'As': 1}",10.0,0.0,,,10.1103/physrevb.85.054503
Fe Se 1-x Te x,{'x': []},,14.0,0.0,single crystals,,10.1143/apex.4.053101
Fe Se 0.5 Te 0.5,{},"{'Fe': 1, 'Se': 0.5, 'Te': 0.5}",15.0,0.0,,,10.1143/apex.4.053101
Fe Se 1-x Te x,{'x': []},,37.0,0.0,thin-film,,10.1143/apex.4.053101
Fe Se 0.5 Te 0.5,{},"{'Fe': 1, 'Se': 0.5, 'Te': 0.5}",15.0,0.0,thin films,CaF 2,10.1143/apex.4.053101
In 1-x Mn x Sb,{'x': []},,8.5,0.0,,,10.1063/1.1583142
Y Ba 2 Cu 3 O 6.7,{},"{'Y': 1, 'Ba': 2, 'Cu': 3, 'O': 6.7}",67.0,0.0,,,10.1126/science.288.5469.1234
Y Ba 2 Cu 3 O 6.85,{},"{'Y': 1, 'Ba': 2, 'Cu': 3, 'O': 6.85}",89.0,0.0,,,10.1126/science.288.5469.1234
Nb,{},{'Nb': 1},9.2,0.0,,,10.1103/physrevb.81.020504
Ca Fe As F,{},"{'Ca': 1, 'Fe': 1, 'As': 1, 'F': 1}",22.0,0.0,,,10.1103/physrevb.97.195110
Bi 4 O 4 S 3,{},"{'Bi': 4, 'O': 4, 'S': 3}",4.5,0.0,,,10.1007/s10948-015-3122-6
La O 0.5 F 0.5 Bi Se 2,{},"{'La': 1, 'O': 0.5, 'F': 0.5, 'Bi': 1, 'Se': 2}",5.0,2.5,polycrystalline,,10.1007/s10948-015-3122-6
La O 0.5 F 0.5 Bi Se 2,{},"{'La': 1, 'O': 0.5, 'F': 0.5, 'Bi': 1, 'Se': 2}",6.0,1.97,single crystals,,10.1007/s10948-015-3122-6
La O 0.5 F 0.5 Bi S 2,{},"{'La': 1, 'O': 0.5, 'F': 0.5, 'Bi': 1, 'S': 2}",10.6,0.0,,,10.1007/s10948-015-3122-6
La O 0.5 F 0.5 Bi Se 2,{},"{'La': 1, 'O': 0.5, 'F': 0.5, 'Bi': 1, 'Se': 2}",3.0,0.0,single crystals,,10.1007/s10948-015-3122-6
Bi Se 2,{},"{'Bi': 1, 'Se': 2}",2.5,0.0,,,10.1007/s10948-015-3122-6
La O 0.5 F 0.5 Bi Se 2,{},"{'La': 1, 'O': 0.5, 'F': 0.5, 'Bi': 1, 'Se': 2}",2.5,0.0,,,10.1007/s10948-015-3122-6
La O 0.5 F 0.5 Bi Se 2,{},"{'La': 1, 'O': 0.5, 'F': 0.5, 'Bi': 1, 'Se': 2}",5.0,2.0,,,10.1007/s10948-015-3122-6
La O 0.5 F 0.5 Bi Se 2,{},"{'La': 1, 'O': 0.5, 'F': 0.5, 'Bi': 1, 'Se': 2}",2.8,0.0,polycrystalline,,10.1007/s10948-015-3122-6
Ce Co In 5,{},"{'Ce': 1, 'Co': 1, 'In': 5}",2.3,0.0,,,10.1103/physrevb.96.045107
Mg B 2,{},"{'Mg': 1, 'B': 2}",36.0,0.0,,,10.1088/0953-2048/21/3/032001
Ho Ba 2 Cu 3 O 7-x,{'x': []},,86.8,0.0,single crystal,,10.1134/1.1130718
La Ir 2 Zn 20,{},"{'La': 1, 'Ir': 2, 'Zn': 20}",0.6,0.0,,,10.1103/physrevb.86.184426
Pr Rh 2 Zn 20,{},"{'Pr': 1, 'Rh': 2, 'Zn': 20}",0.06,0.0,,,10.1103/physrevb.86.184426
Li 0.9 Mo 6 O 17,{},"{'Li': 0.9, 'Mo': 6, 'O': 17}",2.2,0.0,,,10.1103/physrevb.90.094509
Li 0.9 Mo 6 O 17,{},"{'Li': 0.9, 'Mo': 6, 'O': 17}",14.0,0.0,,,10.1103/physrevb.90.094509
Bi 2 Sr 2 Cu O 6,{},"{'Bi': 2, 'Sr': 2, 'Cu': 1, 'O': 6}",10.0,0.0,,,10.1016/s0921-4534(00)01324-1
Tl 2 Ba 2 Cu O 6,{},"{'Tl': 2, 'Ba': 2, 'Cu': 1, 'O': 6}",80.0,0.0,,,10.1016/s0921-4534(00)01324-1
Ce Ir In 5,{},"{'Ce': 1, 'Ir': 1, 'In': 5}",0.4,0.0,,,10.1143/jpsj.80.114710
Ba 8 Si 46,{},"{'Ba': 8, 'Si': 46}",8.1,0.0,,,10.1103/physrevb.82.014531
Fe Se,{},"{'Fe': 1, 'Se': 1}",2.0,0.0,"thin strained, films",,10.1088/1361-6668/ab097e
Fe Se,{},"{'Fe': 1, 'Se': 1}",36.7,0.0,,,10.1088/1361-6668/ab097e
Fe Se,{},"{'Fe': 1, 'Se': 1}",35.0,0.0,,,10.1088/1361-6668/ab097e
Fe Se,{},"{'Fe': 1, 'Se': 1}",8.0,0.0,,,10.1088/1361-6668/ab097e
Y Ni 2 B 2 C,{},"{'Y': 1, 'Ni': 2, 'B': 2, 'C': 1}",15.3,0.0,,,10.1103/physrevb.65.174530
C,{},{'C': 1},89.0,0.0,,,
Fe Te 0.5 Se 0.5,{},"{'Fe': 1, 'Te': 0.5, 'Se': 0.5}",15.0,0.0,,,10.1088/0953-2048/24/6/065011
Fe Se 1-δ,{'δ': []},,6.8,0.0,,,10.1088/0953-2048/24/6/065011
Ga,{},{'Ga': 1},6.8,0.0,,,10.1088/0953-2048/24/6/065011
Fe 1-z Co z Se 1-δ,"{'z': [], 'δ': []}",,10.0,0.0,,,10.1088/0953-2048/24/6/065011
Fe Se 1-δ,{'δ': []},,10.6,0.0,,,10.1088/0953-2048/24/6/065011
Ba,{},{'Ba': 1},10.6,0.0,,,10.1088/0953-2048/24/6/065011
Sm,{},{'Sm': 1},10.6,0.0,,,10.1088/0953-2048/24/6/065011
Ti N x,{'x': []},,5.0,0.0,films,,
Y Ba 2 Cu 3 O y,{'y': [6.45]},"{'Y': 1, 'Ba': 2, 'Cu': 3, 'O': 6.45}",35.0,0.0,,,10.1103/physrevb.79.052501
Nb S 2,{},"{'Nb': 1, 'S': 2}",6.5,0.0,,,10.1088/1361-6668/ab169d
Tl 2 Ba 2 Cu O y,{'y': []},,85.0,0.0,,,10.1126/science.261.5119.337
La 2-x Sr x Cu O 4,{'x': []},,32.0,0.0,,,10.1126/science.261.5119.337
Li Fe As,{},"{'Li': 1, 'Fe': 1, 'As': 1}",17.0,0.0,,,10.1103/physrevlett.108.117001
Ce Co In 5,{},"{'Ce': 1, 'Co': 1, 'In': 5}",2.3,0.0,,,10.1088/1742-6596/449/1/012027
Ce 3 Pt In 11,{},"{'Ce': 3, 'Pt': 1, 'In': 11}",0.32,0.0,,,10.1088/1742-6596/449/1/012027
Ce In 3,{},"{'Ce': 1, 'In': 3}",0.33,0.0,,,10.1088/1742-6596/449/1/012027
Ce Co In 5,{},"{'Ce': 1, 'Co': 1, 'In': 5}",2.1,2.0,,,10.1088/1742-6596/449/1/012027
Ce 2 Pd In 8,{},"{'Ce': 2, 'Pd': 1, 'In': 8}",0.64,0.0,,,10.1088/1742-6596/449/1/012027
(Ca 0.78 La 0.22) Fe 2 As 2,{},"{'Ca': 0.78, 'La': 0.22, 'Fe': 2, 'As': 2}",35.0,0.0,,,10.1103/physrevb.85.184501
Sr Ti O 3,{},"{'Sr': 1, 'Ti': 1, 'O': 3}",100.0,0.0,,,10.1103/physrevb.96.104509
C 6 H 5 N O 2,{},"{'C': 6, 'H': 5, 'N': 1, 'O': 2}",7.0,0.0,,,10.1103/physrevb.69.085112
Bi 2 Sr 2 Ca Cu 2 O 8,{},"{'Bi': 2, 'Sr': 2, 'Ca': 1, 'Cu': 2, 'O': 8}",80.0,0.0,single crystal,,10.1063/1.4993919
Bi 2 Sr 2 Ca Cu 2 O 8,{},"{'Bi': 2, 'Sr': 2, 'Ca': 1, 'Cu': 2, 'O': 8}",50.0,0.0,single crystal,,10.1063/1.4993919
Bi 2 Sr 2 Ca Cu 2 O 8,{},"{'Bi': 2, 'Sr': 2, 'Ca': 1, 'Cu': 2, 'O': 8}",50.0,0.0,,,10.1063/1.4993919
Pb Bi 2 Sr 2 Ca Cu 2 O 8,{},"{'Pb': 1, 'Bi': 2, 'Sr': 2, 'Ca': 1, 'Cu': 2, 'O': 8}",80.0,0.0,single crystal,,10.1063/1.4993919
U Pt 3,{},"{'U': 1, 'Pt': 3}",5.0,0.0,,,10.1016/j.jmmm.2006.10.008
Pb Ta Se 2,{},"{'Pb': 1, 'Ta': 1, 'Se': 2}",3.7,0.0,,,10.1007/s10948-015-3177-4
Li Fe As,{},"{'Li': 1, 'Fe': 1, 'As': 1}",18.0,0.0,,,10.1103/physrevb.81.140511
Li Fe As,{},"{'Li': 1, 'Fe': 1, 'As': 1}",15.0,0.0,,,10.1103/physrevb.81.140511
Ca Fe 2 As 2,{},"{'Ca': 1, 'Fe': 2, 'As': 2}",0.6,0.0,,,10.1103/physrevlett.102.037003
K x Fe 2-y Se 2,"{'x': [], 'y': []}",,32.0,0.0,,,10.1103/physrevb.91.020503
Tl 2 Ca 2 Ba 2 Cu 3 O 10,{},"{'Tl': 2, 'Ca': 2, 'Ba': 2, 'Cu': 3, 'O': 10}",121.5,0.0,,,10.1140/epjb/e2003-00166-7
K Fe 2 As 2,{},"{'K': 1, 'Fe': 2, 'As': 2}",3.0,0.0,,,
K Fe 2 As 2,{},"{'K': 1, 'Fe': 2, 'As': 2}",3.0,0.0,single crystal,,
La Fe P O,{},"{'La': 1, 'Fe': 1, 'P': 1, 'O': 1}",7.4,0.0,,,
Ce Co In 5,{},"{'Ce': 1, 'Co': 1, 'In': 5}",2.3,0.0,,,10.1134/s0021364015060065
Sr 2 Ru O 4,{},"{'Sr': 2, 'Ru': 1, 'O': 4}",1.425,0.0,,,
Sr 2 Ru O 4,{},"{'Sr': 2, 'Ru': 1, 'O': 4}",1.45,0.0,,,
Sr 2 Ru O 4,{},"{'Sr': 2, 'Ru': 1, 'O': 4}",1.43,0.0,,,
Ba 0.65 Rb 0.35 Fe 2 As 2,{},"{'Ba': 0.65, 'Rb': 0.35, 'Fe': 2, 'As': 2}",1.0,0.0,,,10.1038/ncomms9863
Ba Fe 1.85 Co 0.15 As 2,{},"{'Ba': 1, 'Fe': 1.85, 'Co': 0.15, 'As': 2}",22.0,0.0,,,10.1103/physrevb.84.045124
Fe 1+x Te 1-y Se y,"{'x': [], 'y': []}",,14.0,0.0,,,10.1103/physrevb.84.045124
Sr Fe 2 As 2,{},"{'Sr': 1, 'Fe': 2, 'As': 2}",120.0,0.0,polycrystalline,,10.1088/0953-8984/21/10/102203
Ba Fe 2 As 2,{},"{'Ba': 1, 'Fe': 2, 'As': 2}",24.0,0.0,,,10.1088/0953-8984/21/10/102203
Sr Fe 2-x Co x As 2,{'x': [0.4]},"{'Sr': 1, 'Fe': 1.6, 'Co': 0.4, 'As': 2}",20.0,0.0,,,10.1088/0953-8984/21/10/102203
Sr Fe 1.6 Co 0.4 As 2,{},"{'Sr': 1, 'Fe': 1.6, 'Co': 0.4, 'As': 2}",37.0,0.0,single crystals,,10.1088/0953-8984/21/10/102203
Sr Fe 1.6 Co 0.4 As 2,{},"{'Sr': 1, 'Fe': 1.6, 'Co': 0.4, 'As': 2}",19.5,0.0,,,10.1088/0953-8984/21/10/102203
Sr 0.6 K 0.4 Fe 2 As 2,{},"{'Sr': 0.6, 'K': 0.4, 'Fe': 2, 'As': 2}",37.0,0.0,polycrystalline,,10.1088/0953-8984/21/10/102203
Sr 0.6 K 0.4 Fe 2 As 2,{},"{'Sr': 0.6, 'K': 0.4, 'Fe': 2, 'As': 2}",1.2,0.9,polycrystalline,,10.1088/0953-8984/21/10/102203
Sr Fe 2-x Co x As 2,{'x': [0.4]},"{'Sr': 1, 'Fe': 1.6, 'Co': 0.4, 'As': 2}",19.5,0.0,single crystals,,10.1088/0953-8984/21/10/102203
Sr Fe 2 As 2,{},"{'Sr': 1, 'Fe': 2, 'As': 2}",1.8,9.0,,,10.1088/0953-8984/21/10/102203
Sr Ni 2 As 2,{},"{'Sr': 1, 'Ni': 2, 'As': 2}",0.6,0.0,,,10.1103/physrevb.90.201105
Tl Ni 2 Se S,{},"{'Tl': 1, 'Ni': 2, 'Se': 1, 'S': 1}",1.3,0.0,,,10.1103/physrevb.90.201105
Ba Ni 2 As 2,{},"{'Ba': 1, 'Ni': 2, 'As': 2}",3.0,0.0,,,10.1103/physrevb.90.201105
La 2-x Ce x Cu O 4,{'x': []},,30.0,0.0,,,10.1016/j.physc.2009.05.259
La 1.8 Sr 0.2 Cu O 4,{},"{'La': 1.8, 'Sr': 0.2, 'Cu': 1, 'O': 4}",22.8,0.0,,,10.1016/j.physc.2005.07.015
La 1.9 Sr 0.1 Cu O 4,{},"{'La': 1.9, 'Sr': 0.1, 'Cu': 1, 'O': 4}",17.5,0.0,,,10.1016/j.physc.2005.07.015
La 1.94 Sr 0.06 Cu O 4,{},"{'La': 1.94, 'Sr': 0.06, 'Cu': 1, 'O': 4}",2.4,0.0,,,10.1016/j.physc.2005.07.015
La 1.95 Sr 0.05 Cu O 4,{},"{'La': 1.95, 'Sr': 0.05, 'Cu': 1, 'O': 4}",1.5,0.0,,,10.1016/j.physc.2005.07.015
Al,{},{'Al': 1},1.0,0.0,,,10.1038/srep37687
Ba 0.6 K 0.4 Fe 2 As 2,{},"{'Ba': 0.6, 'K': 0.4, 'Fe': 2, 'As': 2}",37.0,0.0,,,10.1016/j.physc.2009.10.121
La Os 4 Sn 12,{},"{'La': 1, 'Os': 4, 'Sn': 12}",0.74,0.0,,,10.1016/j.physc.2009.10.121
Fe Se 0.85,{},"{'Fe': 1, 'Se': 0.85}",8.26,0.0,,,10.1016/j.physc.2009.10.121
Y Ni 2 B 2 C,{},"{'Y': 1, 'Ni': 2, 'B': 2, 'C': 1}",15.6,0.0,,,10.1016/j.physc.2009.10.121
La O 0.9 F 0.1 Fe As 1-δ,{'δ': []},,28.0,0.0,,,10.1016/j.physc.2009.10.121
Na Fe As,{},"{'Na': 1, 'Fe': 1, 'As': 1}",9.0,0.0,,,10.1016/j.physc.2009.10.121
La O Fe P,{},"{'La': 1, 'O': 1, 'Fe': 1, 'P': 1}",6.0,0.0,,,10.1016/j.physc.2009.10.121
V 3 Si,{},"{'V': 3, 'Si': 1}",17.0,0.0,,,10.1016/j.physc.2009.10.121
Ba 0.55 K 0.45 Fe 2 As 1-δ,{'δ': []},,30.0,0.0,single crystal,,10.1016/j.physc.2009.10.121
Pr Os 4 Sn 12,{},"{'Pr': 1, 'Os': 4, 'Sn': 12}",1.85,0.0,,,10.1016/j.physc.2009.10.121
S W C N,{},"{'S': 1, 'W': 1, 'C': 1, 'N': 1}",15.0,0.0,,,10.1103/physrevb.68.024506
Ca 10 (Pt 3 As 8) ((Fe 1-x Pt x) 2 As 2) 5,{'x': [0.078]},"{'Ca': 10, 'Pt': 3.7800000000000002, 'As': 18, 'Fe': 9.22}",10.0,0.0,,,
Ca 10 (Pt 3 As 8) ((Fe 0.922 Pt 0.078) 2 As 2) 5,{},"{'Ca': 10, 'Pt': 3.7800000000000002, 'As': 18, 'Fe': 9.22}",10.0,0.0,,,
Y 2 O 3,{},"{'Y': 2, 'O': 3}",0.9,0.0,,,10.1007/s10909-018-1865-8
Ag,{},{'Ag': 1},1.2,0.0,,,10.1007/s10909-018-1865-8
Y 2 O 3,{},"{'Y': 2, 'O': 3}",0.8,0.0,,,10.1007/s10909-018-1865-8
La 1.88 Sr 0.12 Cu O 4,{},"{'La': 1.88, 'Sr': 0.12, 'Cu': 1, 'O': 4}",31.0,0.0,,,
Eu Bi S 2 F,{},"{'Eu': 1, 'Bi': 1, 'S': 2, 'F': 1}",0.3,0.0,,,10.1088/0953-2048/28/11/115010
Eu 0.5 La 0.5 Bi S 2 F,{},"{'Eu': 0.5, 'La': 0.5, 'Bi': 1, 'S': 2, 'F': 1}",10.0,0.0,,,10.1088/0953-2048/28/11/115010
Eu Bi S 2 F,{},"{'Eu': 1, 'Bi': 1, 'S': 2, 'F': 1}",2.2,0.0,,,10.1088/0953-2048/28/11/115010
Eu Bi S 2 F,{},"{'Eu': 1, 'Bi': 1, 'S': 2, 'F': 1}",10.0,0.0,,,10.1088/0953-2048/28/11/115010
Eu 0.5 La 0.5 Bi S 2 F,{},"{'Eu': 0.5, 'La': 0.5, 'Bi': 1, 'S': 2, 'F': 1}",2.2,0.0,,,10.1088/0953-2048/28/11/115010
H 3 S,{},"{'H': 3, 'S': 1}",200.0,200.0,,,10.1103/physrevb.91.220507
Sm Fe 0.92 Co 0.08 As O,{},"{'Sm': 1, 'Fe': 0.92, 'Co': 0.08, 'As': 1, 'O': 1}",16.4,0.0,,,10.1016/j.jpcs.2013.05.007
Sm Fe As O 0.83 F 0.17,{},"{'Sm': 1, 'Fe': 1, 'As': 1, 'O': 0.83, 'F': 0.17}",44.0,0.0,,,10.1016/j.jpcs.2013.05.007
Fe Se,{},"{'Fe': 1, 'Se': 1}",8.0,0.0,,,10.1088/1361-648x/aab570
Fe Se,{},"{'Fe': 1, 'Se': 1}",5.0,0.0,,,10.1088/1361-648x/aab570
Nd O Bi S 2,{},"{'Nd': 1, 'O': 1, 'Bi': 1, 'S': 2}",5.0,0.0,,,10.1016/j.ssc.2013.10.019
Ce O Bi S 2,{},"{'Ce': 1, 'O': 1, 'Bi': 1, 'S': 2}",3.0,0.0,crystals,,10.1016/j.ssc.2013.10.019
Ce O Bi S 2,{},"{'Ce': 1, 'O': 1, 'Bi': 1, 'S': 2}",3.0,0.0,,,10.1016/j.ssc.2013.10.019
Nd O Bi S 2,{},"{'Nd': 1, 'O': 1, 'Bi': 1, 'S': 2}",5.0,0.0,crystals,,10.1016/j.ssc.2013.10.019
Ce O Bi S 2,{},"{'Ce': 1, 'O': 1, 'Bi': 1, 'S': 2}",3.0,0.0,single crystals,,10.1016/j.ssc.2013.10.019
Y Ba 2 Cu 3 O 7.0,{},"{'Y': 1, 'Ba': 2, 'Cu': 3, 'O': 7.0}",87.8,0.0,crystal,,10.1103/physrevb.60.r12593
La Fe As O 1-x F x,{'x': []},,26.0,0.0,,,10.1143/jpsj.78.034712
Tl 7,{},{'Tl': 7},3.0,0.0,,,10.1103/physrevb.97.054503
Bi 2 Se 3,{},"{'Bi': 2, 'Se': 3}",3.0,0.0,,,10.1103/physrevb.97.054503
Sr x Bi 2 Se 3,{'x': [0.06]},"{'Sr': 0.06, 'Bi': 2, 'Se': 3}",2.5,0.0,single crystals,,10.1103/physrevb.97.054503
Sr x Bi 2 Se 3,{'x': [0.15]},"{'Sr': 0.15, 'Bi': 2, 'Se': 3}",3.0,0.0,,,10.1103/physrevb.97.054503
W 2 N 3,{},"{'W': 2, 'N': 3}",38.0,0.0,,,
Ta N,{},"{'Ta': 1, 'N': 1}",26.98,0.0,,,
W 3 N 4,{},"{'W': 3, 'N': 4}",11.0,0.0,,,
Nb Ti N,{},"{'Nb': 1, 'Ti': 1, 'N': 1}",13.0,0.0,,,10.1088/1367-2630/aa7331
Nb Ti,{},"{'Nb': 1, 'Ti': 1}",9.0,0.0,,,10.1088/1367-2630/aa7331
Nd 1.2 Ba 1.8 Cu 3 O δ,{'δ': []},,65.0,0.0,,,10.1103/physrevmaterials.2.024804
I V Cs,{},"{'I': 1, 'V': 1, 'Cs': 1}",60.5,0.0,,,10.1103/physrevmaterials.2.024804
Y Ba 2 Cu 3 O 7,{},"{'Y': 1, 'Ba': 2, 'Cu': 3, 'O': 7}",86.6,0.0,,,
Y Ba 2 Cu 3 O 7,{},"{'Y': 1, 'Ba': 2, 'Cu': 3, 'O': 7}",86.6,0.0,film,,
Fe Se x Te 1-x,{'x': []},,65.0,0.0,,,10.1016/0038-1098(85)90214-5
Sm O 1-x F x Fe As,{'x': []},,43.0,0.0,,,10.1002/mma.5623
La O 1-x F x F e As,"{'x': [0.05], 'e': []}",,26.0,0.0,,,10.1002/mma.5623
Ce O 1-x F x Fe As,{'x': []},,41.0,0.0,,,10.1002/mma.5623
La O 1-x F x Fe As,{'x': [0.05]},"{'La': 1, 'O': 0.95, 'F': 0.05, 'Fe': 1, 'As': 1}",26.0,0.0,,,10.1002/mma.5623
Ir Te 2,{},"{'Ir': 1, 'Te': 2}",2.0,0.0,,,
Ho Fe As O 1-x F x,{'x': []},,55.0,0.0,,,10.1088/1367-2630/11/2/025005
Y Fe As O 1-x F x,{'x': []},,55.0,0.0,,,10.1088/1367-2630/11/2/025005
Dy Fe As O 1-x F x,{'x': []},,55.0,0.0,,,10.1088/1367-2630/11/2/025005
Tb Fe As O 1-x F x,{'x': []},,55.0,0.0,,,10.1088/1367-2630/11/2/025005
Gd Fe As O 1-x F x,{'x': []},,55.0,0.0,,,10.1088/1367-2630/11/2/025005
Bi 1.7 Pb 0.4 Sr 1.6 Cu 2 O 6+δ,{'δ': []},,32.0,0.0,,,10.1103/physrevb.88.245132
Bi 2 Sr 2 Ca Cu 2 O 8,{},"{'Bi': 2, 'Sr': 2, 'Ca': 1, 'Cu': 2, 'O': 8}",78.0,0.0,,,10.1103/physrevb.88.245132
Bi 2 Sr 2 Cu O 6,{},"{'Bi': 2, 'Sr': 2, 'Cu': 1, 'O': 6}",32.0,0.0,,,10.1103/physrevb.88.245132
Bi 2 Sr 2 Ca Cu 2 O 8,{},"{'Bi': 2, 'Sr': 2, 'Ca': 1, 'Cu': 2, 'O': 8}",91.0,0.0,,,10.1103/physrevb.88.245132
La Fe As O,{},"{'La': 1, 'Fe': 1, 'As': 1, 'O': 1}",10.0,0.0,,,10.1103/physrevb.90.064504
La Fe P O,{},"{'La': 1, 'Fe': 1, 'P': 1, 'O': 1}",5.0,0.0,,,10.1103/physrevb.90.064504
Al 2 O 3,{},"{'Al': 2, 'O': 3}",1.2,0.0,thin films,,10.1103/physrevb.100.024515
Al 2 O 3,{},"{'Al': 2, 'O': 3}",40.0,0.0,,,10.1016/j.jpcs.2012.04.001
U Pt 3,{},"{'U': 1, 'Pt': 3}",0.52,0.0,single crystal,,10.7566/jpsj.82.024707
Ce Ir In 5,{},"{'Ce': 1, 'Ir': 1, 'In': 5}",0.4,0.0,,,10.7566/jpsj.82.024707
Bi 2 Sr 2 Ca Cu 2 O 8-δ,{'δ': []},,74.0,0.0,,,10.1103/physrevb.62.5891
La Fe As O 1-x F x,{'x': []},,28.0,0.0,"thin films, single crystalline",,10.1103/physrevlett.104.077001
La Al O 3,{},"{'La': 1, 'Al': 1, 'O': 3}",28.0,0.0,"thin films, single crystalline",,10.1103/physrevlett.104.077001
La Fe As O 1-x F x,{'x': []},,28.0,0.0,thin films,,10.1103/physrevlett.104.077001
Mg B 2,{},"{'Mg': 1, 'B': 2}",40.0,0.0,,,10.1088/0953-2048/19/6/023
Pu Co Ga 5,{},"{'Pu': 1, 'Co': 1, 'Ga': 5}",18.5,0.0,,,10.1103/physrevb.76.064504
Pu Co Ga 5,{},"{'Pu': 1, 'Co': 1, 'Ga': 5}",0.24,0.0,,,10.1103/physrevb.76.064504
Ce Co In 5,{},"{'Ce': 1, 'Co': 1, 'In': 5}",2.3,0.0,,,10.1103/physrevb.76.064504
Mg B 2,{},"{'Mg': 1, 'B': 2}",7.0,0.0,,,10.1209/0295-5075/77/57005
Mg B 2,{},"{'Mg': 1, 'B': 2}",20.0,0.0,,,10.1209/0295-5075/77/57005
Mg B 2,{},"{'Mg': 1, 'B': 2}",39.0,0.0,,,10.1103/physrevb.66.020513
Fe Se,{},"{'Fe': 1, 'Se': 1}",10.0,0.0,,,10.1088/0953-8984/24/38/382202
Fe Se,{},"{'Fe': 1, 'Se': 1}",8.0,0.0,,,10.1088/0953-8984/24/38/382202
Li x (C 5 H 5 N) y Fe 2-z Se 2,"{'z': [], 'x': [], 'y': []}",,45.0,0.0,,,10.1088/0953-8984/24/38/382202
Fe Se 0.98,{},"{'Fe': 1, 'Se': 0.98}",8.0,0.0,,,10.1088/0953-8984/24/38/382202
Li x Fe 2-y Se 2,"{'x': [], 'y': []}",,30.0,0.0,,,10.1088/0953-8984/24/38/382202
K x Fe 2-y Se 2,"{'x': [], 'y': []}",,30.0,0.0,,,10.1088/0953-8984/24/38/382202
Cs x Fe 2-y Se 2,"{'x': [], 'y': []}",,30.0,0.0,,,10.1088/0953-8984/24/38/382202
Rb x Fe 2-y Se 2,"{'x': [], 'y': []}",,30.0,0.0,,,10.1088/0953-8984/24/38/382202
Ba 0.65 K 0.35 Fe 2 As 2,{},"{'Ba': 0.65, 'K': 0.35, 'Fe': 2, 'As': 2}",36.0,0.0,,,
Ba 1-x K x Fe 2 As 2,{'x': []},,36.0,0.0,,,
Ba Fe 1.9 Ni 0.1 As 2,{},"{'Ba': 1, 'Fe': 1.9, 'Ni': 0.1, 'As': 2}",19.0,0.0,single crystals,,
(Rb Cs) Eu Fe 4 As 4,{},"{'Rb': 1, 'Cs': 1, 'Eu': 1, 'Fe': 4, 'As': 4}",35.0,0.0,,,10.1103/physrevb.98.014518
Ba Fe 2 As 2,{},"{'Ba': 1, 'Fe': 2, 'As': 2}",35.0,0.0,,,10.1103/physrevb.98.014518
Mg B 2,{},"{'Mg': 1, 'B': 2}",18.0,0.0,film,,10.1016/j.cap.2017.08.008
Mg B 2,{},"{'Mg': 1, 'B': 2}",37.5,0.0,films,,10.1016/j.cap.2017.08.008
Nb 3 Sn,{},"{'Nb': 3, 'Sn': 1}",18.0,0.0,polycrystalline,,10.1016/j.cap.2017.08.008
Nb Se 2,{},"{'Nb': 1, 'Se': 2}",7.3,0.0,,,10.1088/0953-2048/10/7a/003
Tl 2 Ba 2 Cu O 6,{},"{'Tl': 2, 'Ba': 2, 'Cu': 1, 'O': 6}",26.5,0.0,,,