Material,Substitutions,Composition,Tc (K),Pressure (GPa),Shape,Substrate,DOI
K 3 C 60,{},"{'K': 3, 'C': 60}",18.0,0.0,,,10.1103/physrevb.86.214507
U Ge 2,{},"{'U': 1, 'Ge': 2}",53.0,0.0,,,10.3367/ufne.2016.04.037771
Nd Fe As (O F),{},"{'Nd': 1, 'Fe': 1, 'As': 1, 'O': 1, 'F': 1}",46.0,0.0,film,,
Bi 2 Sr 2 Cu O 6,{},"{'Bi': 2, 'Sr': 2, 'Cu': 1, 'O': 6}",15.0,0.0,,,10.1103/physrevb.84.014522
Bi 2 Sr 2 Ca Cu 2 O 8,{},"{'Bi': 2, 'Sr': 2, 'Ca': 1, 'Cu': 2, 'O': 8}",63.0,0.0,,,10.1103/physrevb.84.014522
Ba Fe 2 As 2,{},"{'Ba': 1, 'Fe': 2, 'As': 2}",22.0,0.0,,,
Mg B 2,{},"{'Mg': 1, 'B': 2}",10.0,0.0,,,10.1103/physrevb.100.174513
Mg B 2,{},"{'Mg': 1, 'B': 2}",39.0,0.0,,,10.1103/physrevb.100.174513
Mg B 2,{},"{'Mg': 1, 'B': 2}",20.0,0.0,,,10.1103/physrevb.100.174513
H 3 S,{},"{'H': 3, 'S': 1}",262.0,140.0,,,10.1103/physrevb.100.174513
H 3 S,{},"{'H': 3, 'S': 1}",200.0,150.0,,,10.1103/physrevb.100.174513
Ca C 6,{},"{'Ca': 1, 'C': 6}",15.0,0.0,,,10.1103/physrevb.76.161406
Ta S 2,{},"{'Ta': 1, 'S': 2}",0.8,0.0,,,10.1103/physrevb.98.035203
Mg B 2,{},"{'Mg': 1, 'B': 2}",39.0,0.0,,,10.1016/j.physleta.2009.11.051
Bi 1.6 Pb 0.4 Sr 2 Ca Cu 2 O 8+δ,{'δ': []},,89.3,0.0,single crystals,,
Nd Fe As O 0.85,{},"{'Nd': 1, 'Fe': 1, 'As': 1, 'O': 0.85}",53.5,0.0,,,10.1016/j.physc.2016.05.019
Gd Ba 2 Cu 3 O 7-δ,{'δ': []},,84.6,0.0,thin films,,10.1103/physrevb.64.024513
Y Ba 2 Cu 3 O 7-δ,{'δ': []},,84.7,0.0,crystals,,10.1103/physrevb.64.024513
La 1.85 Sr 0.15 Cu O 4,{},"{'La': 1.85, 'Sr': 0.15, 'Cu': 1, 'O': 4}",58.0,0.0,thin films,,10.1103/physrevb.63.132507
La 1.85 Sr 0.15 Cu O 4,{},"{'La': 1.85, 'Sr': 0.15, 'Cu': 1, 'O': 4}",30.0,0.0,,,
Y Ba 2 Cu 3 O 6.9,{},"{'Y': 1, 'Ba': 2, 'Cu': 3, 'O': 6.9}",30.0,0.0,,,
La 1.48 Nd 0.4 Sr 0.12 Cu O 4,{},"{'La': 1.48, 'Nd': 0.4, 'Sr': 0.12, 'Cu': 1, 'O': 4}",6.0,0.0,,,
La 2-x Sr x Cu O 4,{'x': [0.125]},"{'La': 1.875, 'Sr': 0.125, 'Cu': 1, 'O': 4}",30.0,0.0,,,
O 6.6,{},{'O': 6.6},62.7,0.0,,,10.1016/s0921-4526(97)00633-9
Y Ba 2 Cu 3 O 6.6,{},"{'Y': 1, 'Ba': 2, 'Cu': 3, 'O': 6.6}",62.7,0.0,single crystal,,10.1016/s0921-4526(97)00633-9
K 0.8 Fe 2 Se 2,{},"{'K': 0.8, 'Fe': 2, 'Se': 2}",30.0,0.0,,,10.1103/physrevb.84.054502
Co,{},{'Co': 1},9.5,0.0,,,10.1088/1361-6528/aab0e9
Nb,{},{'Nb': 1},9.21,0.0,films,,10.1088/1361-6528/aab0e9
Si,{},{'Si': 1},9.21,0.0,films,,10.1088/1361-6528/aab0e9
Nb,{},{'Nb': 1},4.36,0.0,films,,10.1088/1361-6528/aab0e9
Co,{},{'Co': 1},5.4,0.0,,,10.1088/1361-6528/aab0e9
Co,{},{'Co': 1},5.4,0.0,thin films,,10.1088/1361-6528/aab0e9
Lu Ni 2 B 2 C,{},"{'Lu': 1, 'Ni': 2, 'B': 2, 'C': 1}",16.5,0.0,,,10.1103/physrevb.70.094511
La Ni P O,{},"{'La': 1, 'Ni': 1, 'P': 1, 'O': 1}",2.2,0.0,,,10.1103/physrevb.70.094511
La 3 Ni 4 P 4 O 2,{},"{'La': 3, 'Ni': 4, 'P': 4, 'O': 2}",2.2,0.0,,,10.1103/physrevb.70.094511
La H 10,{},"{'La': 1, 'H': 10}",250.0,170.0,,,10.1016/j.ssc.2019.113769
Be,{},{'Be': 1},9.0,0.0,,,10.1016/j.ssc.2019.113769
Bi 35 Pb 65,{},"{'Bi': 35, 'Pb': 65}",9.5,0.0,,,10.1016/j.ssc.2019.113769
Sr 2 Ru O 4,{},"{'Sr': 2, 'Ru': 1, 'O': 4}",1.5,0.0,,,10.1103/physrevlett.79.733
La Fe As O 1-x F x,{'x': []},,26.0,4.0,,,10.1039/b808474b
Ce Fe As O 0.85,{},"{'Ce': 1, 'Fe': 1, 'As': 1, 'O': 0.85}",50.0,10.0,,,10.1039/b808474b
Nb Cu Nb,{},"{'Nb': 2, 'Cu': 1}",1.45,0.0,,,10.1142/s0217979203018065
Al,{},{'Al': 1},1.26,0.0,thin films,,10.1103/physrevb.69.220503
Rh 9 In 4 S 4,{},"{'Rh': 9, 'In': 4, 'S': 4}",2.25,0.0,,,10.1103/physrevb.95.134505
Rh 9 In 4 S 4,{},"{'Rh': 9, 'In': 4, 'S': 4}",3.5,0.0,,,10.1103/physrevb.95.134505
(Ga Mn) As,{},"{'Ga': 1, 'Mn': 1, 'As': 1}",63.0,0.0,,,10.1103/physrevb.68.184421
W O 3,{},"{'W': 1, 'O': 3}",90.0,0.0,,,
La 1.85 Sr 0.15 Cu O 4,{},"{'La': 1.85, 'Sr': 0.15, 'Cu': 1, 'O': 4}",15.5,0.0,,,
Cu 3 O 6+x,{'x': []},,87.4,0.0,,,
Sm Fe As O 1-x F x,{'x': []},,55.0,0.0,,,10.1103/physrevb.85.214530
Pd Te 2,{},"{'Pd': 1, 'Te': 2}",1.6,0.0,,,10.1103/physrevb.97.054515
K Os 2 O 6,{},"{'K': 1, 'Os': 2, 'O': 6}",9.6,0.0,,,10.1139/cjp-2018-0283
Y,{},{'Y': 1},9.7,46.6,,,10.1103/physrevb.78.064519
Nb 3 Ge,{},"{'Nb': 3, 'Ge': 1}",20.0,0.0,,,10.1103/physrevb.78.064519
La Fe O As,{},"{'La': 1, 'Fe': 1, 'O': 1, 'As': 1}",26.0,0.0,,,10.1103/physrevb.77.224431
La Co O P,{},"{'La': 1, 'Co': 1, 'O': 1, 'P': 1}",43.0,0.0,,,10.1103/physrevb.77.224431
U Co Ga 5,{},"{'U': 1, 'Co': 1, 'Ga': 5}",2.3,0.0,,,
Pu Rh Ga 5,{},"{'Pu': 1, 'Rh': 1, 'Ga': 5}",8.6,0.0,,,
Bi 2 Sr 2 Cu O 6,{},"{'Bi': 2, 'Sr': 2, 'Cu': 1, 'O': 6}",1.8,0.0,,,
H 3 S,{},"{'H': 3, 'S': 1}",200.0,170.0,,,10.1002/chem.201705321
H 3 S,{},"{'H': 3, 'S': 1}",190.0,170.0,,,10.1002/chem.201705321
Sm Fe As O 0.8 F 0.2,{},"{'Sm': 1, 'Fe': 1, 'As': 1, 'O': 0.8, 'F': 0.2}",51.7,0.0,,,10.1007/s10948-012-1824-6
Rb 0.8 Fe 2 Se 2,{},"{'Rb': 0.8, 'Fe': 2, 'Se': 2}",31.0,0.0,Single crystals,,10.1016/j.physc.2014.08.005
K x Fe 2 Se 2,{'x': []},,30.0,0.0,,,10.1016/j.physc.2014.08.005
Rb 0.8 Fe 2 Se 2,{},"{'Rb': 0.8, 'Fe': 2, 'Se': 2}",31.0,0.0,single crystals,,10.1016/j.physc.2014.08.005
La Fe As O 1-x F x,{'x': []},,26.0,0.0,,,10.1016/j.physc.2014.08.005
Fe Se,{},"{'Fe': 1, 'Se': 1}",8.0,0.0,,,10.1016/j.physc.2014.08.005
Nb 3 Sn,{},"{'Nb': 3, 'Sn': 1}",15.0,0.0,,,10.1007/s40843-019-1237-5
Y Ba 2 Cu 3 O 6+x,{'x': []},,90.0,0.0,,,10.1103/physrevb.98.224508
Bi 2 Sr 2 Ca Cu 2 O 8,{},"{'Bi': 2, 'Sr': 2, 'Ca': 1, 'Cu': 2, 'O': 8}",70.0,0.0,,,10.1103/physrevb.98.224508
Sr 2 Ru O 4,{},"{'Sr': 2, 'Ru': 1, 'O': 4}",1.5,0.0,,,10.1038/s41598-019-52003-0
Pr (Os 1-x Ru x) 4 Sb 12,{'x': []},,10.0,0.0,,,
La,{},{'La': 1},45.0,0.0,single crystal,,10.1016/j.physc.2014.06.014
Ca Fe 2 As 2,{},"{'Ca': 1, 'Fe': 2, 'As': 2}",45.0,0.0,single crystal,,10.1016/j.physc.2014.06.014
(Ca Pr) Fe 2 As 2,{},"{'Ca': 1, 'Pr': 1, 'Fe': 2, 'As': 2}",16.0,0.0,,,10.1016/j.physc.2014.06.014
(Ca Pr) Fe 2 As 2,{},"{'Ca': 1, 'Pr': 1, 'Fe': 2, 'As': 2}",20.0,0.0,,,10.1016/j.physc.2014.06.014
(Ca Pr) Fe 2 As 2,{},"{'Ca': 1, 'Pr': 1, 'Fe': 2, 'As': 2}",40.0,0.0,single-crystalline,,10.1016/j.physc.2014.06.014
(Ca Pr) Fe 2 As 2,{},"{'Ca': 1, 'Pr': 1, 'Fe': 2, 'As': 2}",2.0,0.0,,,10.1016/j.physc.2014.06.014
Ca Fe As 2,{},"{'Ca': 1, 'Fe': 1, 'As': 2}",20.0,0.0,,,10.1016/j.physc.2014.06.014
La Fe As O,{},"{'La': 1, 'Fe': 1, 'As': 1, 'O': 1}",26.0,0.0,,,10.1209/0295-5075/84/67013
Ce In 3,{},"{'Ce': 1, 'In': 3}",2.1,1.6,,,10.1103/physrevb.69.014515
Rh Ge,{},"{'Rh': 1, 'Ge': 1}",4.7,0.0,,,10.7566/jpsj.82.124701
Pd Ge,{},"{'Pd': 1, 'Ge': 1}",4.7,0.0,,,10.7566/jpsj.82.124701
Ir Ge,{},"{'Ir': 1, 'Ge': 1}",4.7,0.0,,,10.7566/jpsj.82.124701
Pt Ge,{},"{'Pt': 1, 'Ge': 1}",4.7,0.0,,,10.7566/jpsj.82.124701
K Os 2 O 6,{},"{'K': 1, 'Os': 2, 'O': 6}",9.6,0.0,,,10.7566/jpsj.82.124701
Sm O 0.8 F 0.1 Fe As 2,{},"{'Sm': 1, 'O': 0.8, 'F': 0.1, 'Fe': 1, 'As': 2}",55.0,0.0,,,10.1103/physrevb.80.094504
La O 1-x F x Fe As,{'x': []},,26.0,0.0,,,10.1103/physrevb.80.094504
Ce Cu 2 Si 2,{},"{'Ce': 1, 'Cu': 2, 'Si': 2}",0.7,0.0,,,
Li Fe P,{},"{'Li': 1, 'Fe': 1, 'P': 1}",5.0,0.0,,,10.1103/physrevlett.109.236403
La Fe P O,{},"{'La': 1, 'Fe': 1, 'P': 1, 'O': 1}",6.0,0.0,,,10.1103/physrevlett.109.236403
Fe Te 1-x Se x,{'x': []},,14.5,0.0,,,10.1103/physrevb.85.085105
W Te 2,{},"{'W': 1, 'Te': 2}",0.3,0.0,,,10.1038/ncomms8805
W Te 2,{},"{'W': 1, 'Te': 2}",7.0,16.8,,,10.1038/ncomms8805
Sr 2 Ru O 4,{},"{'Sr': 2, 'Ru': 1, 'O': 4}",1.0,0.0,,,10.1088/1361-6633/aab0cc
Sr 2 Ru O 4,{},"{'Sr': 2, 'Ru': 1, 'O': 4}",2.3,0.0,,,10.1088/1361-6633/aab0cc
Ce Co In 5,{},"{'Ce': 1, 'Co': 1, 'In': 5}",2.3,0.0,,,10.1088/1361-6633/aab0cc
Bi 2 Sr 2 Ca Cu 2 O 8,{},"{'Bi': 2, 'Sr': 2, 'Ca': 1, 'Cu': 2, 'O': 8}",82.0,0.0,,,10.1088/1361-6633/aab0cc
Bi 2 Sr 2 Ca Cu 2 O 8,{},"{'Bi': 2, 'Sr': 2, 'Ca': 1, 'Cu': 2, 'O': 8}",91.0,0.0,,,10.1088/1361-6633/aab0cc
Bi 2 Sr 2 Ca Cu 2 O 8,{},"{'Bi': 2, 'Sr': 2, 'Ca': 1, 'Cu': 2, 'O': 8}",75.0,0.0,,,10.1103/physrevb.85.224535
Y Ba 2 Cu 3 O 6.95,{},"{'Y': 1, 'Ba': 2, 'Cu': 3, 'O': 6.95}",93.0,0.0,,,10.1103/physrevb.69.184513
Y Ba 2 Cu 3 O 6.6,{},"{'Y': 1, 'Ba': 2, 'Cu': 3, 'O': 6.6}",59.0,0.0,,,10.1103/physrevb.69.184513
Eu Fe 2 (As P) 2,{},"{'Eu': 1, 'Fe': 2, 'As': 2, 'P': 2}",28.0,0.0,,,10.1038/srep07754
Eu P,{},"{'Eu': 1, 'P': 1}",22.7,0.0,,,10.1038/srep07754
Eu (Fe Co) 2 As 2,{},"{'Eu': 1, 'Fe': 2, 'Co': 2, 'As': 2}",18.0,0.0,,,10.1038/srep07754
Nb,{},{'Nb': 1},9.2,0.0,,,10.1063/1.3114522
Lu Ru B 2,{},"{'Lu': 1, 'Ru': 1, 'B': 2}",46.0,0.0,,,10.1103/physrevb.97.094506
(O P) La 2-x Sr x Cu O 4,{'x': [0.16]},"{'O': 5, 'P': 1, 'La': 1.84, 'Sr': 0.16, 'Cu': 1}",38.5,0.0,,,10.1088/0953-8984/25/36/365702
Ga 0.95 Mn 0.05 As,{},"{'Ga': 0.95, 'Mn': 0.05, 'As': 1}",97.0,0.0,single,,10.1103/physrevb.66.233313
(Ga Mn) As,{},"{'Ga': 1, 'Mn': 1, 'As': 1}",110.0,0.0,,,10.1103/physrevb.66.233313
Nb Se 2,{},"{'Nb': 1, 'Se': 2}",50.0,0.0,,,10.1103/physrevb.79.140501
Sm Fe As O 1-x F x,{'x': []},,51.5,0.0,,,10.1103/physrevb.79.140501
Sm Fe As O 0.85 F 0.15,{},"{'Sm': 1, 'Fe': 1, 'As': 1, 'O': 0.85, 'F': 0.15}",40.0,0.0,polycrystalline,,10.1103/physrevb.79.140501
Sm Fe As O 0.85 F 0.15,{},"{'Sm': 1, 'Fe': 1, 'As': 1, 'O': 0.85, 'F': 0.15}",40.0,0.0,,,10.1103/physrevb.79.140501
Mg B 2,{},"{'Mg': 1, 'B': 2}",40.0,0.0,,,10.1103/physrevb.79.140501
Sm Fe As O 1-x F y,"{'x': [], 'y': [0.2]}",,45.0,0.0,single crystal,,10.1103/physrevb.79.140501
Sm Fe As O 0.85,{},"{'Sm': 1, 'Fe': 1, 'As': 1, 'O': 0.85}",52.0,0.0,,,10.1103/physrevb.79.140501
Sm Fe As O 1-x F y,"{'x': [], 'y': [0.2]}",,45.0,0.0,single crystals,,10.1103/physrevb.79.140501
K Fe 2 As 2,{},"{'K': 1, 'Fe': 2, 'As': 2}",11.0,14.4,,,10.1103/physrevb.93.224516
Cs Fe 2 As 2,{},"{'Cs': 1, 'Fe': 2, 'As': 2}",2.4,0.0,,,10.1103/physrevb.93.224516
K 1-x Sr x Fe 2 As 2,{'x': [0.8]},"{'K': 0.19999999999999996, 'Sr': 0.8, 'Fe': 2, 'As': 2}",15.0,0.0,,,10.1039/b000000x/
Nd Fe As O 0.88 F 0.12,{},"{'Nd': 1, 'Fe': 1, 'As': 1, 'O': 0.88, 'F': 0.12}",50.0,0.0,,,10.1039/b000000x/
Nd Fe As O,{},"{'Nd': 1, 'Fe': 1, 'As': 1, 'O': 1}",13.5,0.0,,,10.1039/b000000x/
Bi 4 O 4 S 3,{},"{'Bi': 4, 'O': 4, 'S': 3}",2.0,0.0,,,10.1140/epjb/e2012-30975-2
Bi 4 O 4 S 3,{},"{'Bi': 4, 'O': 4, 'S': 3}",4.5,0.0,,,10.1140/epjb/e2012-30975-2
Sn Se 1.8 S 0.2,{},"{'Sn': 1, 'Se': 1.8, 'S': 0.2}",6.2,0.0,,,10.1103/physrevmaterials.3.054804
Li Sn Se 2,{},"{'Li': 1, 'Sn': 1, 'Se': 2}",5.5,0.0,,,10.1103/physrevmaterials.3.054804
Sn Se 2,{},"{'Sn': 1, 'Se': 2}",4.8,0.0,,,10.1103/physrevmaterials.3.054804
Sn Se 2,{},"{'Sn': 1, 'Se': 2}",25.0,0.0,,,10.1103/physrevmaterials.3.054804
Fe Se,{},"{'Fe': 1, 'Se': 1}",8.0,0.0,,,10.1103/physrevmaterials.3.054804
Sn Se 2,{},"{'Sn': 1, 'Se': 2}",3.9,0.0,,,10.1103/physrevmaterials.3.054804
La 2 Cu O 4,{},"{'La': 2, 'Cu': 1, 'O': 4}",26.0,0.0,,,10.1103/physrevmaterials.3.054804
La Fe As O,{},"{'La': 1, 'Fe': 1, 'As': 1, 'O': 1}",38.0,0.0,,,10.1103/physrevmaterials.3.054804
K Fe 2 Se 2,{},"{'K': 1, 'Fe': 2, 'Se': 2}",40.0,0.0,,,10.1103/physrevlett.108.247003
Rb Fe 2 Se 2,{},"{'Rb': 1, 'Fe': 2, 'Se': 2}",40.0,0.0,,,10.1103/physrevlett.108.247003
Cs Fe 2 Se 2,{},"{'Cs': 1, 'Fe': 2, 'Se': 2}",40.0,0.0,,,10.1103/physrevlett.108.247003
La Fe As O 1-x F x,{'x': []},,50.0,0.0,,,10.1103/physrevlett.101.097010
Nd Fe As O 1-x F x,{'x': []},,50.0,0.0,,,10.1103/physrevlett.101.097010
Pr Fe As O 1-x F x,{'x': []},,50.0,0.0,,,10.1103/physrevlett.101.097010
Gd Fe As O 1-x F x,{'x': []},,50.0,0.0,,,10.1103/physrevlett.101.097010
Sm Fe As O 1-x F x,{'x': []},,50.0,0.0,,,10.1103/physrevlett.101.097010
La Sr Cu O,{},"{'La': 1, 'Sr': 1, 'Cu': 1, 'O': 1}",24.0,0.0,,,10.1007/s10948-011-1308-0
Ca H 6,{},"{'Ca': 1, 'H': 6}",235.0,170.0,,,10.1016/j.physc.2015.03.002
S,{},{'S': 1},17.0,0.0,,,10.1016/j.physc.2015.03.002
C 6 Y b,{'b': []},,12.0,0.0,,,10.1016/j.physc.2015.03.002
Ba 1-x K x Bi O 3,{'x': []},,34.0,0.0,,,10.1016/j.physc.2015.03.002
C 60,{},{'C': 60},33.0,0.0,,,10.1016/j.physc.2015.03.002
P u Co Ga 5,{'u': []},,18.5,0.0,,,10.1016/j.physc.2015.03.002
Cs 3 C 60,{},"{'Cs': 3, 'C': 60}",38.0,0.0,,,10.1016/j.physc.2015.03.002
W O 3,{},"{'W': 1, 'O': 3}",90.0,0.0,,,10.1016/j.physc.2015.03.002
Ba Fe 2 As 2,{},"{'Ba': 1, 'Fe': 2, 'As': 2}",38.0,0.0,,,10.1103/physrevb.79.064517
La O Fe As,{},"{'La': 1, 'O': 1, 'Fe': 1, 'As': 1}",26.0,0.0,,,10.1103/physrevb.79.064517
Hg Ba 2 Ca 2 Cu 3 O 8+δ,{'δ': []},,133.0,0.0,,,10.1143/jpsj.81.011008
Hg Ba 2 Ca 3 Cu 4 O 12,{},"{'Hg': 1, 'Ba': 2, 'Ca': 3, 'Cu': 4, 'O': 12}",123.0,0.0,,,10.1143/jpsj.81.011008
Hg Ba 2 Ca 4 Cu 5 O 14,{},"{'Hg': 1, 'Ba': 2, 'Ca': 4, 'Cu': 5, 'O': 14}",108.0,0.0,,,10.1143/jpsj.81.011008
Bi 2 Sr 2 Ca Cu 2 O 8,{},"{'Bi': 2, 'Sr': 2, 'Ca': 1, 'Cu': 2, 'O': 8}",86.0,0.0,,,10.1143/jpsj.81.011008
Hg Ba 2 Cu O 6,{},"{'Hg': 1, 'Ba': 2, 'Cu': 1, 'O': 6}",96.0,0.0,,,10.1143/jpsj.81.011008
Hg Ba 2 Ca 7 Cu 8 O 20,{},"{'Hg': 1, 'Ba': 2, 'Ca': 7, 'Cu': 8, 'O': 20}",103.0,0.0,,,10.1143/jpsj.81.011008
Hg Ba 2 Ca 2 Cu 3 O 10,{},"{'Hg': 1, 'Ba': 2, 'Ca': 2, 'Cu': 3, 'O': 10}",133.0,0.0,,,10.1143/jpsj.81.011008
Hg Ba 2 Ca 4 Cu 5 O 14,{},"{'Hg': 1, 'Ba': 2, 'Ca': 4, 'Cu': 5, 'O': 14}",72.0,0.0,,,10.1143/jpsj.81.011008
Hg Ba 2 Ca 4 Cu 5 O 14,{},"{'Hg': 1, 'Ba': 2, 'Ca': 4, 'Cu': 5, 'O': 14}",110.0,0.0,,,10.1143/jpsj.81.011008
Mg B 2,{},"{'Mg': 1, 'B': 2}",40.0,0.0,films,,10.1063/1.1782258
Mg B 2,{},"{'Mg': 1, 'B': 2}",39.0,0.0,,,10.1088/0953-2048/22/12/125023
Ca 10 (Pt 4 As 8) (Fe 2-x Pt x As 2) 5,{'x': []},,38.0,0.0,,,10.1103/physrevb.90.224513
Ca 10 (Ir 4 As 8) (Fe 2-x Ir x As 2) 5,{'x': []},,16.0,0.0,,,10.1103/physrevb.90.224513
Nb 3 Sn,{},"{'Nb': 3, 'Sn': 1}",18.0,0.0,,,
Mg 11 B 2,{},"{'Mg': 11, 'B': 2}",39.0,0.0,,,
Sr 2 Ru O 4,{},"{'Sr': 2, 'Ru': 1, 'O': 4}",1.5,0.0,,,
Ce Co In 5,{},"{'Ce': 1, 'Co': 1, 'In': 5}",2.3,0.0,,,10.1143/jpsj.76.051005
La Fe As O 1-x F x,{'x': []},,26.0,0.0,,,10.1143/jpsj.77.083704
Y Ba Cu O 6.6,{},"{'Y': 1, 'Ba': 1, 'Cu': 1, 'O': 6.6}",60.0,0.0,,,10.1103/physrevb.61.r11898
(Ca Pr) Fe As 2,{},"{'Ca': 1, 'Pr': 1, 'Fe': 1, 'As': 2}",20.0,0.0,,,10.1103/physrevb.89.205102
Li Fe As,{},"{'Li': 1, 'Fe': 1, 'As': 1}",20.0,0.0,,,10.1103/physrevb.89.205102
(K Ba) Fe 2 As 2,{},"{'K': 1, 'Ba': 1, 'Fe': 2, 'As': 2}",38.0,0.0,,,10.1103/physrevb.89.205102
(Li 0.8 Fe 0.2) O H Fe Se 1-x S x,{'x': [0.16]},"{'Li': 0.8, 'Fe': 1.2, 'O': 1, 'H': 1, 'Se': 0.84, 'S': 0.16}",37.0,0.0,,,
Fe Se,{},"{'Fe': 1, 'Se': 1}",10.0,0.0,,,
La Fe As 1-x P x O,{'x': []},,10.8,0.0,,,
La (O F) Bi S 2,{},"{'La': 1, 'O': 1, 'F': 1, 'Bi': 1, 'S': 2}",300.0,4.0,,,10.1107/s1600536807009634
La (O F) Bi S 2,{},"{'La': 1, 'O': 1, 'F': 1, 'Bi': 1, 'S': 2}",11.0,0.0,,,10.1107/s1600536807009634
La (O F) Bi S 2,{},"{'La': 1, 'O': 1, 'F': 1, 'Bi': 1, 'S': 2}",10.0,0.0,,,10.1107/s1600536807009634
Li C 6,{},"{'Li': 1, 'C': 6}",8.55,0.0,,,10.1088/0953-8984/26/25/255701
Li 2 C 6,{},"{'Li': 2, 'C': 6}",8.55,0.0,,,10.1088/0953-8984/26/25/255701
Y Ba 2 Cu 3 O 7,{},"{'Y': 1, 'Ba': 2, 'Cu': 3, 'O': 7}",93.0,0.0,,,
Mg B 2,{},"{'Mg': 1, 'B': 2}",39.0,0.0,,,10.1038/nphys3265
La 1.885 Ba 0.115 Cu O 4,{},"{'La': 1.885, 'Ba': 0.115, 'Cu': 1, 'O': 4}",53.0,0.0,,,10.3379/jmsjmag.23.590
Li F e As,{'e': []},,18.0,0.0,,,10.1088/1742-6596/449/1/012017
Tl 2 Ba 2 Ca Cu 2 O 8,{},"{'Tl': 2, 'Ba': 2, 'Ca': 1, 'Cu': 2, 'O': 8}",107.0,0.0,,,
Pr 2 Ba 4 Cu 7 O 7,{},"{'Pr': 2, 'Ba': 4, 'Cu': 7, 'O': 7}",30.0,0.0,,,10.1016/j.physc.2012.05.008
Pr 2 Ba 4 Cu 7 O 7,{},"{'Pr': 2, 'Ba': 4, 'Cu': 7, 'O': 7}",15.0,0.0,,,10.1016/j.physc.2012.05.008
Pr 2 Ba 4 Cu 7 O 15-δ,{'δ': [0.45]},"{'Pr': 2, 'Ba': 4, 'Cu': 7, 'O': 14.55}",15.0,0.0,polycrystalline,,10.1016/j.physc.2012.05.008
Pr Ba 2 Cu 4 O 7,{},"{'Pr': 1, 'Ba': 2, 'Cu': 4, 'O': 7}",2.0,0.0,,,10.1016/j.physc.2012.05.008
Pb,{},{'Pb': 1},7.2,0.0,,,10.1038/s41467-019-13946-0
Mg B 2,{},"{'Mg': 1, 'B': 2}",37.0,0.0,polycrystalline,,10.1063/1.4821135
La 1.875 Ba 0.125 Cu O 4,{},"{'La': 1.875, 'Ba': 0.125, 'Cu': 1, 'O': 4}",30.0,0.0,,,
La 1.885 Sr 0.115 Cu O 4,{},"{'La': 1.885, 'Sr': 0.115, 'Cu': 1, 'O': 4}",15.0,0.0,,,
La 1.875 Ba 0.125 Cu O 4,{},"{'La': 1.875, 'Ba': 0.125, 'Cu': 1, 'O': 4}",4.0,0.0,,,
Ta B 2,{},"{'Ta': 1, 'B': 2}",9.5,0.0,,,10.1103/physrevb.66.140301
Nb B 2,{},"{'Nb': 1, 'B': 2}",1.0,0.0,,,10.1103/physrevb.66.140301
Sm 0.85 Th 0.15 Fe As O,{},"{'Sm': 0.85, 'Th': 0.15, 'Fe': 1, 'As': 1, 'O': 1}",50.0,0.0,single-doped,,10.1088/0256-307x/34/7/077401
Fe Se,{},"{'Fe': 1, 'Se': 1}",100.0,0.0,thin films,,10.1088/0256-307x/34/7/077401
Ba (Fe 1-x Co x) 2 As 2,{'x': []},,40.0,0.0,,,10.1088/0256-307x/34/7/077401
K 0.8 Fe 1.7 Se 2,{},"{'K': 0.8, 'Fe': 1.7, 'Se': 2}",48.0,0.0,,,10.1088/0256-307x/34/7/077401
Fe Se,{},"{'Fe': 1, 'Se': 1}",8.0,0.0,,,10.1088/0256-307x/34/7/077401
Ba Fe 2 As 2,{},"{'Ba': 1, 'Fe': 2, 'As': 2}",38.0,0.0,,,10.1088/0256-307x/34/7/077401
Sm Fe As O 1-x F x,{'x': []},,57.8,0.0,film,,10.1088/0256-307x/34/7/077401
Sm 0.8 Th 0.2 Fe As O 0.775 F 0.225,{},"{'Sm': 0.8, 'Th': 0.2, 'Fe': 1, 'As': 1, 'O': 0.775, 'F': 0.225}",58.0,0.0,,,10.1088/0256-307x/34/7/077401
Sm Fe As O 0.85 F 0.15,{},"{'Sm': 1, 'Fe': 1, 'As': 1, 'O': 0.85, 'F': 0.15}",52.8,0.0,,,10.1088/0256-307x/34/7/077401
Li Fe As,{},"{'Li': 1, 'Fe': 1, 'As': 1}",18.0,0.0,,,10.1088/0256-307x/34/7/077401
Sm Fe As O 1-x F x,{'x': []},,58.0,0.0,,,10.1088/0256-307x/34/7/077401
Sm 0.85 Th 0.15 Fe As O,{},"{'Sm': 0.85, 'Th': 0.15, 'Fe': 1, 'As': 1, 'O': 1}",45.0,0.0,,,10.1088/0256-307x/34/7/077401
Sm 0.9 Th 0.1 Fe As O 0.9 F 0.1,{},"{'Sm': 0.9, 'Th': 0.1, 'Fe': 1, 'As': 1, 'O': 0.9, 'F': 0.1}",55.2,0.0,,,10.1088/0256-307x/34/7/077401
Fe Se,{},"{'Fe': 1, 'Se': 1}",40.0,0.0,,,10.1088/0256-307x/34/7/077401
La Fe As O 1-x F x,{'x': []},,26.0,0.0,,,10.1088/0256-307x/34/7/077401
Sm 0.8 Th 0.2 Fe As O 0.775 F 0.225,{},"{'Sm': 0.8, 'Th': 0.2, 'Fe': 1, 'As': 1, 'O': 0.775, 'F': 0.225}",58.6,0.0,,,10.1088/0256-307x/34/7/077401
La Fe As O 0.89 F 0.11,{},"{'La': 1, 'Fe': 1, 'As': 1, 'O': 0.89, 'F': 0.11}",26.0,0.0,,,10.1088/0256-307x/34/7/077401
Sm Fe As O,{},"{'Sm': 1, 'Fe': 1, 'As': 1, 'O': 1}",58.6,0.0,,,10.1088/0256-307x/34/7/077401
Na Fe As,{},"{'Na': 1, 'Fe': 1, 'As': 1}",31.0,3.0,,,10.1088/0256-307x/34/7/077401
Al,{},{'Al': 1},2.1,0.0,films,,10.1142/9789813271142_0001
Nb 3 Ge,{},"{'Nb': 3, 'Ge': 1}",30.0,0.0,,,10.1142/9789813271142_0001
La 1.85 Ba 0.15 Cu O 4,{},"{'La': 1.85, 'Ba': 0.15, 'Cu': 1, 'O': 4}",30.0,0.0,,,10.1142/9789813271142_0001
Mg B 2,{},"{'Mg': 1, 'B': 2}",42.0,0.0,,,10.1142/9789813271142_0001
Bi 2 Sr 2 Ca Cu 2 O 8,{},"{'Bi': 2, 'Sr': 2, 'Ca': 1, 'Cu': 2, 'O': 8}",75.0,0.0,,,10.1007/pl00011041
Bi 2 Te 3,{},"{'Bi': 2, 'Te': 3}",8.0,0.0,,,10.1073/pnas.1014085108
Bi 2 Te 3,{},"{'Bi': 2, 'Te': 3}",3.0,0.0,single crystal,,10.1073/pnas.1014085108
Ti N,{},"{'Ti': 1, 'N': 1}",0.4,0.0,,,10.1007/s10909-013-1078-0
Ti N,{},"{'Ti': 1, 'N': 1}",4.5,0.0,films,,10.1007/s10909-013-1078-0
Ba Ti 2 Sb 2 O,{},"{'Ba': 1, 'Ti': 2, 'Sb': 2, 'O': 1}",1.2,0.0,,,10.1103/physrevb.87.100507
Sc Ga 3,{},"{'Sc': 1, 'Ga': 3}",1.8,0.0,,,10.1103/physrevb.85.174514
Sc Ga 3,{},"{'Sc': 1, 'Ga': 3}",80.0,0.0,,,10.1103/physrevb.85.174514
Lu Ga 3,{},"{'Lu': 1, 'Ga': 3}",2.0,0.0,,,10.1103/physrevb.85.174514
Sc Ga 3,{},"{'Sc': 1, 'Ga': 3}",2.1,0.0,,,10.1103/physrevb.85.174514
Fe Se,{},"{'Fe': 1, 'Se': 1}",65.0,0.0,thin films,SrTiO 3,10.1103/physrevb.87.174503
Bi 2 Sr 2 Cu O 6,{},"{'Bi': 2, 'Sr': 2, 'Cu': 1, 'O': 6}",9.8,0.0,single crystal,,10.1103/physrevb.77.064511
U Ru 2 Si 2,{},"{'U': 1, 'Ru': 2, 'Si': 2}",17.5,0.0,,,10.1126/science.1197358
Ca 1.9 Na 0.1 Cu O 2 Cl 2,{},"{'Ca': 1.9, 'Na': 0.1, 'Cu': 1, 'O': 2, 'Cl': 2}",13.0,0.0,,,10.1143/jpsj.72.1018
Eu,{},{'Eu': 1},25.0,0.0,,,10.1088/0953-8984/18/8/018
Ce Pt 3 Si,{},"{'Ce': 1, 'Pt': 3, 'Si': 1}",1.0,0.0,,,10.1103/physrevlett.120.177002
K Fe 2 As 2,{},"{'K': 1, 'Fe': 2, 'As': 2}",3.0,0.0,,,10.1103/physrevlett.118.087003
Y Ba 2 Cu 3 O 7,{},"{'Y': 1, 'Ba': 2, 'Cu': 3, 'O': 7}",90.0,0.0,,,10.1088/0953-8984/25/35/355702
La 2 Cu O 4.06,{},"{'La': 2, 'Cu': 1, 'O': 4.06}",36.0,0.0,,,10.1088/0953-8984/25/35/355702
Y Ba 2 Cu 3 O 6+y,{'y': []},,30.0,0.0,,,10.1088/0953-8984/25/35/355702
Y Ba 2 Cu 3 O 6.5,{},"{'Y': 1, 'Ba': 2, 'Cu': 3, 'O': 6.5}",60.0,0.0,,,
La 2 Cu O 4-δ,{'δ': []},,40.0,0.0,,,
Sr 2 Cu O 4-δ,{'δ': []},,95.0,0.0,,,
Ba 2 Cu O 4-δ,{'δ': []},,73.0,0.0,,,