Material,Substitutions,Composition,Tc (K),Pressure (GPa),Shape,Substrate,DOI
Pr 2 Ba 4 Cu 7 O 15-δ,{'δ': []},,27.0,0.0,,,
Bi 2 Sr 2 Ca Cu 2 O 8-x,{'x': []},,90.0,0.0,,,10.1088/0953-2048/17/2/008
Mg B 2,{},"{'Mg': 1, 'B': 2}",35.0,0.0,,,10.1088/0953-2048/17/2/008
Mg B 2,{},"{'Mg': 1, 'B': 2}",40.0,0.0,,,10.1088/0953-2048/17/2/008
Mg B 2,{},"{'Mg': 1, 'B': 2}",39.0,0.0,,,10.1143/jpsj.66.556
H Nb Se 2,{},"{'H': 1, 'Nb': 1, 'Se': 2}",5.5,0.0,single crystals,,10.1007/bf02704939
Fe,{},{'Fe': 1},5.5,0.0,single crystals,,10.1007/bf02704939
H Nb Se 2,{},"{'H': 1, 'Nb': 1, 'Se': 2}",7.5,0.0,single crystals,,10.1007/bf02704939
Si C,{},"{'Si': 1, 'C': 1}",41.3,0.0,,,10.1088/0953-2048/16/2/314
Nb,{},{'Nb': 1},9.2,0.0,,,10.1088/0953-2048/16/2/314
Nb 3 Sn,{},"{'Nb': 3, 'Sn': 1}",18.0,0.0,,,10.1088/0953-2048/16/2/314
Nb N,{},"{'Nb': 1, 'N': 1}",16.0,0.0,,,10.1088/0953-2048/16/2/314
Mg C Ni 3,{},"{'Mg': 1, 'C': 1, 'Ni': 3}",8.0,0.0,,,10.1103/physrevb.69.092511
Mg B 2,{},"{'Mg': 1, 'B': 2}",38.83,0.0,single crystal,,10.1088/0953-8984/20/13/135208
(Sr 1-x La x) Fe 2 As 2,{'x': []},,22.0,0.0,polycrystalline,,10.1103/physrevb.85.140516
(Ba 1-x La x) Fe 2 As 2,{'x': []},,22.4,0.0,,,10.1103/physrevb.85.140516
Y Ba 2 Cu 3 O 6+x,{'x': [0.92]},"{'Y': 1, 'Ba': 2, 'Cu': 3, 'O': 6.92}",92.7,0.0,crystal,,10.1103/physrevlett.93.157007
Y 0.8 Ca 0.2 Ba 2 Cu 3 O 6.95,{},"{'Y': 0.8, 'Ca': 0.2, 'Ba': 2, 'Cu': 3, 'O': 6.95}",73.0,0.0,,,10.1103/physrevlett.93.157007
Y Ba 2 Cu 3 O 6+x,{'x': [0.75]},"{'Y': 1, 'Ba': 2, 'Cu': 3, 'O': 6.75}",67.0,0.0,crystals,,10.1103/physrevlett.93.157007
Y Ba 2 Cu 4 O 8,{},"{'Y': 1, 'Ba': 2, 'Cu': 4, 'O': 8}",81.0,0.0,crystal,,10.1103/physrevlett.93.157007
Al 2 O 3,{},"{'Al': 2, 'O': 3}",39.0,0.0,thin films,,10.1126/science.1060822
La 2-x Sr x Cu O 4,{'x': []},,55.0,0.0,,,10.1063/1.5037550
Nd Fe As O 0.6 F 0.4,{},"{'Nd': 1, 'Fe': 1, 'As': 1, 'O': 0.6, 'F': 0.4}",38.0,0.0,,,10.1063/1.5037550
K Fe 2 As 2,{},"{'K': 1, 'Fe': 2, 'As': 2}",4.0,0.0,,,10.1063/1.5037550
Y Pd 2 Sn,{},"{'Y': 1, 'Pd': 2, 'Sn': 1}",4.55,0.0,,,10.1016/s0921-4526(02)01631-9
Yb Pd 2 Sn,{},"{'Yb': 1, 'Pd': 2, 'Sn': 1}",2.3,0.0,,,10.1016/s0921-4526(02)01631-9
Mg B 2,{},"{'Mg': 1, 'B': 2}",40.0,0.0,,,10.1103/physrevb.65.212505
La 2 Cu O 4,{},"{'La': 2, 'Cu': 1, 'O': 4}",90.0,0.0,,,10.1103/physrevb.65.212505
P H 3,{},"{'P': 1, 'H': 3}",100.0,0.0,,,10.1103/physrevb.65.212505
La Fe As O 1-x F x,{'x': []},,26.0,0.0,,,10.1103/physrevb.81.014503
Pu Co Ga 5,{},"{'Pu': 1, 'Co': 1, 'Ga': 5}",18.5,0.0,,,10.1103/physrevlett.108.017001
Pu Co In 5,{},"{'Pu': 1, 'Co': 1, 'In': 5}",2.4,0.0,,,10.1103/physrevlett.108.017001
Pu Rh Ga 5,{},"{'Pu': 1, 'Rh': 1, 'Ga': 5}",8.7,0.0,,,10.1103/physrevlett.108.017001
Ba 2 Ti 2 Fe 2 As 4 O,{},"{'Ba': 2, 'Ti': 2, 'Fe': 2, 'As': 4, 'O': 1}",21.0,0.0,,,10.1103/physrevb.93.214503
Eu Fe 2 As 2,{},"{'Eu': 1, 'Fe': 2, 'As': 2}",36.5,0.0,,,10.1103/physrevb.93.214503
Mg B 2,{},"{'Mg': 1, 'B': 2}",9.7,0.0,,,
Nb Ti,{},"{'Nb': 1, 'Ti': 1}",9.0,0.0,,,10.1002/cvde.201106935
Nb 3 Sn,{},"{'Nb': 3, 'Sn': 1}",18.0,0.0,,,10.1002/cvde.201106935
Mg B 2,{},"{'Mg': 1, 'B': 2}",39.0,0.0,,,10.1002/cvde.201106935
Fe Se,{},"{'Fe': 1, 'Se': 1}",8.0,0.0,,,10.1103/physrevb.93.205154
Eu (Fe 1-x Co x) 2 As 2,{'x': []},,40.0,0.0,,,10.1103/physrevb.87.224508
Pd Te,{},"{'Pd': 1, 'Te': 1}",4.5,0.0,,,
Bi 2 Sr 2 Ca 0.92 Y 0.08 Cu 2 O 8+δ,{'δ': []},,96.0,0.0,,,
Bi 2 Sr 2 Ca 2 Cu 3 O 10,{},"{'Bi': 2, 'Sr': 2, 'Ca': 2, 'Cu': 3, 'O': 10}",108.0,0.0,,,
Ca 10 (Fe As) 10 Pt 4 As 8,{},"{'Ca': 10, 'Fe': 10, 'As': 18, 'Pt': 4}",38.0,0.0,,,10.1080/14786435.2013.816450
Nb 3 Sn,{},"{'Nb': 3, 'Sn': 1}",18.0,0.0,,,10.1063/1.2193047
Pr 0.7 Ca 0.3 Mn O 3,{},"{'Pr': 0.7, 'Ca': 0.3, 'Mn': 1, 'O': 3}",115.0,0.0,,,
Bi 2 Sr 2 Ca Cu 2 O 8,{},"{'Bi': 2, 'Sr': 2, 'Ca': 1, 'Cu': 2, 'O': 8}",65.0,0.0,,,
Mg B 2,{},"{'Mg': 1, 'B': 2}",39.0,0.0,,,10.1016/s0921-4534(02)01881-6
Mg B 2,{},"{'Mg': 1, 'B': 2}",39.0,0.0,,,10.1063/1.1433915
Mg B 2,{},"{'Mg': 1, 'B': 2}",3.0,0.0,,,10.1063/1.1433915
Al 2 O 3,{},"{'Al': 2, 'O': 3}",3.0,0.0,,,10.1063/1.1433915
Mg B 2,{},"{'Mg': 1, 'B': 2}",38.0,0.0,,,10.1063/1.1433915
K Ca 2 Fe 4 As 4 F 2,{},"{'K': 1, 'Ca': 2, 'Fe': 4, 'As': 4, 'F': 2}",33.5,0.0,Single crystalline,,
K Ca 2 (Fe 0.95 Ni 0.05) 4 As 4 F 2,{},"{'K': 1, 'Ca': 2, 'Fe': 3.8, 'Ni': 0.2, 'As': 4, 'F': 2}",29.0,0.0,,,
Mg B 2,{},"{'Mg': 1, 'B': 2}",39.0,0.0,,,10.1088/0953-2048/16/10/310
Ag Al O 2,{},"{'Ag': 1, 'Al': 1, 'O': 2}",40.0,0.0,,,10.1016/j.physc.2015.10.007
Au Al O 2,{},"{'Au': 1, 'Al': 1, 'O': 2}",50.0,0.0,,,10.1016/j.physc.2015.10.007
Cu Al O 2,{},"{'Cu': 1, 'Al': 1, 'O': 2}",50.0,0.0,,,10.1016/j.physc.2015.10.007
Au Al O 2,{},"{'Au': 1, 'Al': 1, 'O': 2}",3.0,0.0,,,10.1016/j.physc.2015.10.007
Cu Al O 2,{},"{'Cu': 1, 'Al': 1, 'O': 2}",3.0,0.0,,,10.1016/j.physc.2015.10.007
U Ru 2 Si 2,{},"{'U': 1, 'Ru': 2, 'Si': 2}",17.4,0.0,,,10.1103/physrevb.67.014404
Bi 2 Sr 2 Cu O 6,{},"{'Bi': 2, 'Sr': 2, 'Cu': 1, 'O': 6}",19.0,0.0,crystal,,10.1038/s41567-018-0334-2
Bi 2 Sr 2 Cu O 6,{},"{'Bi': 2, 'Sr': 2, 'Cu': 1, 'O': 6}",10.0,0.0,,,10.1038/s41567-018-0334-2
Ta 2 Pd x S 5,{'x': []},,6.0,0.0,,,10.1007/s10948-014-2935-z
Ta 4 Pd 3 Te 16,{},"{'Ta': 4, 'Pd': 3, 'Te': 16}",4.4,0.0,polycrystalline,,10.1007/s10948-014-2935-z
Ta 2 Pd 0.97 Te 6,{},"{'Ta': 2, 'Pd': 0.97, 'Te': 6}",4.4,0.0,,,10.1007/s10948-014-2935-z
Ta 4 Pd 3 Te 16,{},"{'Ta': 4, 'Pd': 3, 'Te': 16}",4.5,0.0,,,10.1007/s10948-014-2935-z
Pd Te 2,{},"{'Pd': 1, 'Te': 2}",4.4,0.0,,,10.1007/s10948-014-2935-z
Ca Fe 2 As 2,{},"{'Ca': 1, 'Fe': 2, 'As': 2}",49.0,0.0,,,10.1103/physrevb.85.092503
Eu Fe 2 As 2,{},"{'Eu': 1, 'Fe': 2, 'As': 2}",31.0,3.0,,,10.1103/physrevb.85.092503
Y Ba 2 Cu 3 O 6.6,{},"{'Y': 1, 'Ba': 2, 'Cu': 3, 'O': 6.6}",63.0,0.0,single crystal,,10.2172/224866
Mg B 2,{},"{'Mg': 1, 'B': 2}",39.0,0.0,,,10.1103/physrevb.82.224508
Re O 1-x F x Fe As,{'x': []},,50.0,0.0,,,10.1103/physrevb.79.014508
La Pd 3 P,{},"{'La': 1, 'Pd': 3, 'P': 1}",0.3,0.0,,,
La Pd 3 P,{},"{'La': 1, 'Pd': 3, 'P': 1}",0.32,0.0,,,
La Pd 3 P,{},"{'La': 1, 'Pd': 3, 'P': 1}",0.28,0.0,,,
(Ca 0.6 Sr 0.4) Pd 3 P,{},"{'Ca': 0.6, 'Sr': 0.4, 'Pd': 3, 'P': 1}",0.32,0.0,,,
Na Bi,{},"{'Na': 1, 'Bi': 1}",2.15,0.0,,,10.1088/0953-8984/26/21/212201
Ti N,{},"{'Ti': 1, 'N': 1}",3.7,0.0,film,,
Bi 2 Se 3,{},"{'Bi': 2, 'Se': 3}",3.8,0.0,bulk crystal,,10.1021/acs.nanolett.5b00576
In x Sn 1-x Te,{'x': [0.05]},"{'In': 0.05, 'Sn': 0.95, 'Te': 1}",2.0,0.0,,,10.1021/acs.nanolett.5b00576
Nd 1.84 Ce 0.16 Cu O 4+δ,{'δ': []},,1.0,0.0,crystal,,10.1140/epjst/e2010-01297-8
Nd 2-x Ce x Cu O 4+δ,"{'δ': [], 'x': []}",,10.0,0.0,,,10.1140/epjst/e2010-01297-8
Nd 2-x Ce x Cu O 4+δ,"{'δ': [], 'x': []}",,23.5,0.0,crystals,,10.1140/epjst/e2010-01297-8
Pr 1.85 Ce 0.15 Cu O 4+δ,{'δ': []},,25.5,0.0,,,10.1140/epjst/e2010-01297-8
Pr 2-x Ce x Cu O 4+δ,"{'δ': [], 'x': []}",,25.0,0.0,,,10.1140/epjst/e2010-01297-8
Sn,{},{'Sn': 1},3.7,0.0,,,10.1088/0953-8984/21/32/325701
S N,{},"{'S': 1, 'N': 1}",46.0,0.0,,,10.1088/0953-8984/21/32/325701
Nb 6 Sn 5,{},"{'Nb': 6, 'Sn': 5}",2.6,0.0,,,10.1088/0953-8984/21/32/325701
S N 4,{},"{'S': 1, 'N': 4}",50.0,0.0,,,10.1088/0953-8984/21/32/325701
Nb Sn 2,{},"{'Nb': 1, 'Sn': 2}",2.1,0.0,,,10.1088/0953-8984/21/32/325701
Ba 0.67 K 0.33 (Fe 0.92 Co 0.08) 2 As 2,{},"{'Ba': 0.67, 'K': 0.33, 'Fe': 1.84, 'Co': 0.16, 'As': 2}",28.0,0.0,,,10.1103/physrevb.98.060502
Ba 0.67 K 0.33 Fe 2 As 2,{},"{'Ba': 0.67, 'K': 0.33, 'Fe': 2, 'As': 2}",38.0,0.0,,,10.1103/physrevb.98.060502
Fe Se,{},"{'Fe': 1, 'Se': 1}",57.0,0.0,,,10.1103/physrevb.97.060501
Zr B 12,{},"{'Zr': 1, 'B': 12}",6.1,0.0,,,
Bi 2 Se 3,{},"{'Bi': 2, 'Se': 3}",9.5,0.0,film,,10.20944/preprints201703.0049.v1
Sr Fe 2 (As 0.65 P 0.35) 2,{},"{'Sr': 1, 'Fe': 2, 'As': 1.3, 'P': 0.7}",33.0,0.0,,,10.7566/jpsj.83.104702
Ba Fe 2 As 2,{},"{'Ba': 1, 'Fe': 2, 'As': 2}",30.0,0.0,,,10.7566/jpsj.83.104702
Sm 2 Mo 2 O 7,{},"{'Sm': 2, 'Mo': 2, 'O': 7}",73.0,0.0,,,10.1103/physrevlett.90.196602
Y Ba 2 Cu 3 O 6.35,{},"{'Y': 1, 'Ba': 2, 'Cu': 3, 'O': 6.35}",10.0,0.0,,,10.1088/1367-2630/12/10/105006
Y Ba 2 Cu 3 O 6.45,{},"{'Y': 1, 'Ba': 2, 'Cu': 3, 'O': 6.45}",35.0,0.0,,,10.1088/1367-2630/12/10/105006
K 2 Cr 3 As 3,{},"{'K': 2, 'Cr': 3, 'As': 3}",6.1,0.0,,,10.1103/physrevlett.115.147002
Rb 2 Cr 3 As 3,{},"{'Rb': 2, 'Cr': 3, 'As': 3}",6.1,0.0,,,10.1103/physrevlett.115.147002
Cs 2 Cr 3 As 3,{},"{'Cs': 2, 'Cr': 3, 'As': 3}",6.1,0.0,,,10.1103/physrevlett.115.147002
Cr As,{},"{'Cr': 1, 'As': 1}",2.0,0.0,,,10.1103/physrevlett.115.147002
Rb 2 Cr 3 As 3,{},"{'Rb': 2, 'Cr': 3, 'As': 3}",4.8,0.0,,,10.1103/physrevlett.115.147002
Cs,{},{'Cs': 1},52.0,0.0,,,10.1134/s0021364007160126
Mg B 2,{},"{'Mg': 1, 'B': 2}",39.0,0.0,,,10.1134/s0021364007160126
Cs,{},{'Cs': 1},25.0,0.0,,,10.1038/srep09868
Ca C 6,{},"{'Ca': 1, 'C': 6}",11.4,0.0,,,10.1103/physrevb.76.220501
Rb Cs 2 C 60,{},"{'Rb': 1, 'Cs': 2, 'C': 60}",23.0,0.0,films,,
La 0.05 Y 0.95 Fe As O 1-y,{'y': []},,50.0,0.0,,,10.1103/physrevb.91.134511
Ce Cu Au x,{'x': []},,0.76,0.79,,,10.1038/s41535-018-0080-9
V 3 Ge,{},"{'V': 3, 'Ge': 1}",6.4,0.0,,,
Eu Fe 2 (As 1-x P x) 2,{'x': [0.3]},"{'Eu': 1, 'Fe': 2, 'As': 1.4, 'P': 0.6}",10.5,0.0,single crystal,,10.1088/1742-6596/551/1/012025
Nb 2 Se 3,{},"{'Nb': 2, 'Se': 3}",2.4,0.0,,,10.1103/physrevb.75.064517
Nb 2 Se 3,{},"{'Nb': 2, 'Se': 3}",2.0,0.0,,,10.1103/physrevb.75.064517
Nb 3 Se 4,{},"{'Nb': 3, 'Se': 4}",2.31,0.0,,,10.1103/physrevb.75.064517
V 3 Ge,{},"{'V': 3, 'Ge': 1}",6.1,0.0,,,10.1007/978-94-011-4834-4_12
Bi 2 Sr 2 Ca Cu 2 O 8+x,{'x': []},,79.0,0.0,,,10.1007/978-94-011-4834-4_12
V 3 Ge,{},"{'V': 3, 'Ge': 1}",6.1,0.0,single-crystal,,10.1007/978-94-011-4834-4_12
Tl 2 Ba 2 Cu O 6,{},"{'Tl': 2, 'Ba': 2, 'Cu': 1, 'O': 6}",23.0,0.0,,,10.1007/bf00681482
Y Ba 2 Cu 4 O 7,{},"{'Y': 1, 'Ba': 2, 'Cu': 4, 'O': 7}",82.0,0.0,,,10.1007/bf00681482
Tl 2 Ba 2 Cu O 6,{},"{'Tl': 2, 'Ba': 2, 'Cu': 1, 'O': 6}",90.0,0.0,,,10.1007/bf00681482
Bi 2 Sr 2 Ca Cu 2 O 8,{},"{'Bi': 2, 'Sr': 2, 'Ca': 1, 'Cu': 2, 'O': 8}",95.0,0.0,single crystals,,10.1007/bf00681482
Bi 2 Sr 2 Ca Cu 2 O 8,{},"{'Bi': 2, 'Sr': 2, 'Ca': 1, 'Cu': 2, 'O': 8}",91.0,0.0,single crystals,,10.1007/bf00681482
(Li 1-x Fe x) O H Fe Se,{'x': []},,8.0,0.0,,,10.1103/physrevb.98.014503
Mg B 2,{},"{'Mg': 1, 'B': 2}",15.0,0.0,,,10.1088/0953-2048/24/4/045013
Mg B 2,{},"{'Mg': 1, 'B': 2}",20.0,0.0,,,10.1088/0953-2048/24/4/045013
Mg B 2,{},"{'Mg': 1, 'B': 2}",7.4,0.0,,,10.1088/0953-2048/24/4/045013
Mg B 2,{},"{'Mg': 1, 'B': 2}",38.6,0.0,,,10.1088/0953-2048/24/4/045013
Mg B 2,{},"{'Mg': 1, 'B': 2}",39.0,0.0,,,10.1088/0953-2048/24/4/045013
Ce Co In 5,{},"{'Ce': 1, 'Co': 1, 'In': 5}",1.3,0.0,,,10.1103/physrevb.76.052401
Ce Co In 5,{},"{'Ce': 1, 'Co': 1, 'In': 5}",2.3,0.0,,,10.1103/physrevb.76.052401
Gd 2 Ti 2 O 7,{},"{'Gd': 2, 'Ti': 2, 'O': 7}",1.0,0.0,,,10.1103/physrevlett.89.067202
Na 2-δ Mo 6 Se 6,{'δ': []},,1.5,0.0,,,10.1038/s41427-019-0158-2
Li 0.9 Mo 6 O 17,{},"{'Li': 0.9, 'Mo': 6, 'O': 17}",1.9,0.0,,,10.1038/s41427-019-0158-2
In 2 Mo 6 Se 6,{},"{'In': 2, 'Mo': 6, 'Se': 6}",2.8,0.0,,,10.1038/s41427-019-0158-2
K 2 Cr 3 As 3,{},"{'K': 2, 'Cr': 3, 'As': 3}",6.1,0.0,,,10.1038/s41427-019-0158-2
Tl 2 Mo 6 Se 6,{},"{'Tl': 2, 'Mo': 6, 'Se': 6}",4.2,0.0,,,10.1038/s41427-019-0158-2
K x Eu 1-x Fe 2 As 2,{'x': [0.51]},"{'K': 0.51, 'Eu': 0.49, 'Fe': 2, 'As': 2}",3.4,0.0,,,10.1103/physrevb.85.024511
Li Fe As,{},"{'Li': 1, 'Fe': 1, 'As': 1}",18.0,0.0,,,10.1103/physrevx.5.031035
Ca 2 Ru O 4,{},"{'Ca': 2, 'Ru': 1, 'O': 4}",0.4,9.0,,,10.1038/s41598-020-60313-x
Ca 2 Ru O 4,{},"{'Ca': 2, 'Ru': 1, 'O': 4}",64.0,0.0,thin film,,10.1038/s41598-020-60313-x
Sr 2 Ru O 4,{},"{'Sr': 2, 'Ru': 1, 'O': 4}",1.5,0.0,,,10.1038/s41598-020-60313-x
Y Ba 2 Cu 3 O 7-δ,{'δ': []},,93.05,0.0,single crys- tal,,
Y Ba 2 Cu 3 O 7-δ,{'δ': []},,92.12,0.0,,,
Cs 2 Rb C 60,{},"{'Cs': 2, 'Rb': 1, 'C': 60}",33.0,15.0,,,10.1103/physrevb.84.020507
K 3 C 60,{},"{'K': 3, 'C': 60}",20.0,0.0,,,10.1103/physrevb.84.020507
Ca C 6,{},"{'Ca': 1, 'C': 6}",11.6,0.0,,,10.1103/physrevb.84.020507
Pr Fe 0.85 Co 0.15 As O,{},"{'Pr': 1, 'Fe': 0.85, 'Co': 0.15, 'As': 1, 'O': 1}",11.12,0.0,,,
Pr Fe 0.9 Co 0.1 As O,{},"{'Pr': 1, 'Fe': 0.9, 'Co': 0.1, 'As': 1, 'O': 1}",13.3,0.0,,,
Bi 2 Sr 2-x La x Cu O 6+δ,"{'δ': [], 'x': []}",,20.0,0.0,,,
Ce Ru 2,{},"{'Ce': 1, 'Ru': 2}",6.3,0.0,,,10.7566/jpsj.82.123706
Lu Pt Bi,{},"{'Lu': 1, 'Pt': 1, 'Bi': 1}",1.0,0.0,,,10.1103/physrevb.87.184504
Ce Fe As O 1-x F x,{'x': [0.06]},"{'Ce': 1, 'Fe': 1, 'As': 1, 'O': 0.94, 'F': 0.06}",30.0,0.0,,,10.1103/physrevb.82.060508
Ce Rh In 5,{},"{'Ce': 1, 'Rh': 1, 'In': 5}",2.0,0.0,,,10.1103/physrevb.66.212502
V 1.4 Nb 1.4 Mo 0.2 Al 0.5 Ga 0.5,{},"{'V': 1.4, 'Nb': 1.4, 'Mo': 0.2, 'Al': 0.5, 'Ga': 0.5}",10.2,0.0,,,10.1016/j.scriptamat.2020.03.004
Re 0.56 Nb 0.11 Ti 0.11 Zr 0.11 Hf 0.11,{},"{'Re': 0.56, 'Nb': 0.11, 'Ti': 0.11, 'Zr': 0.11, 'Hf': 0.11}",4.4,0.0,,,10.1016/j.scriptamat.2020.03.004
Y Ba 2 Cu 3 O 6.353,{},"{'Y': 1, 'Ba': 2, 'Cu': 3, 'O': 6.353}",18.0,0.0,,,10.1103/physrevb.77.014523
Y Ba 2 Cu 3 O 6.45,{},"{'Y': 1, 'Ba': 2, 'Cu': 3, 'O': 6.45}",48.0,0.0,,,10.1103/physrevb.77.014523
Y Ba 2 Cu 3 O 6.5,{},"{'Y': 1, 'Ba': 2, 'Cu': 3, 'O': 6.5}",58.0,0.0,,,10.1103/physrevb.77.014523
Pr 0.88 La Ce 0.12 Cu O 4,{},"{'Pr': 0.88, 'La': 1, 'Ce': 0.12, 'Cu': 1, 'O': 4}",21.0,0.0,,,10.1103/physrevb.77.014523
Bi 2 Sr 2 Ca Cu 2 O 8,{},"{'Bi': 2, 'Sr': 2, 'Ca': 1, 'Cu': 2, 'O': 8}",91.0,0.0,,,10.1103/physrevb.87.060506
Bi 2 Sr 2 Ca Cu 2 O 8,{},"{'Bi': 2, 'Sr': 2, 'Ca': 1, 'Cu': 2, 'O': 8}",85.0,0.0,,,10.1103/physrevb.87.060506
La 2 Cu O 4+δ,{'δ': []},,29.0,0.0,,,10.1039/c6cp01400c
La 2 Cu O 4.06,{},"{'La': 2, 'Cu': 1, 'O': 4.06}",29.0,0.0,,,10.1039/c6cp01400c
La 2 Cu O 4.06,{},"{'La': 2, 'Cu': 1, 'O': 4.06}",16.0,0.0,,,10.1039/c6cp01400c
La Ni As O 1-x F x,{'x': []},,4.0,0.0,,,10.1103/physrevb.81.140509
Re Fe As O 1-x F x,{'x': []},,55.0,0.0,,,10.1103/physrevb.81.140509
Eu Se,{},"{'Eu': 1, 'Se': 1}",66.8,0.0,,,10.1007/978-94-007-1007-8_1
Eu S,{},"{'Eu': 1, 'S': 1}",16.9,0.0,,,10.1007/978-94-007-1007-8_1
Bi 2 Sr 2 Ca Cu 2 O 8,{},"{'Bi': 2, 'Sr': 2, 'Ca': 1, 'Cu': 2, 'O': 8}",90.0,0.0,,,10.1063/1.2835901
Bi 2 Sr 2 Ca Cu 2 O 8,{},"{'Bi': 2, 'Sr': 2, 'Ca': 1, 'Cu': 2, 'O': 8}",75.0,0.0,,,10.1063/1.2835901
Fe Se,{},"{'Fe': 1, 'Se': 1}",1.0,0.0,,,10.1103/physrevb.99.035157
Fe Se,{},"{'Fe': 1, 'Se': 1}",9.0,0.0,,,10.1103/physrevb.99.035157
Bi 2+z Sr 2-z Cu O y,"{'z': [], 'y': []}",,30.0,0.0,single crystals,,10.1209/epl/i2002-00571-0
Bi 2.2 Sr 1.8 Cu O y,{'y': []},,3.0,0.0,crystal,,10.1209/epl/i2002-00571-0
Bi 2.2 Sr 1.8 Cu O y,{'y': []},,3.0,0.0,,,10.1209/epl/i2002-00571-0
Pd Bi,{},"{'Pd': 1, 'Bi': 1}",3.8,0.0,,,10.1103/physrevb.97.144514
Li C 6,{},"{'Li': 1, 'C': 6}",0.39,0.0,,,10.1103/physrevlett.106.187002
K C 8,{},"{'K': 1, 'C': 8}",0.39,0.0,,,10.1103/physrevlett.106.187002
Ca C 6,{},"{'Ca': 1, 'C': 6}",11.5,0.0,,,10.1103/physrevlett.106.187002
Sr 2 Ru O 4,{},"{'Sr': 2, 'Ru': 1, 'O': 4}",3.4,0.0,,,
Sr 2 Ru O 4,{},"{'Sr': 2, 'Ru': 1, 'O': 4}",3.0,0.0,,,
Nb N,{},"{'Nb': 1, 'N': 1}",15.0,0.0,,,10.1088/0953-2048/28/5/054002
Nb N,{},"{'Nb': 1, 'N': 1}",4.4,0.0,,,10.1088/0953-2048/28/5/054002
Mo Al and Ta,"{'n': [], 'a': [], 'd': []}",,9.3,0.0,,,10.1088/0953-2048/28/5/054002
Ba Fe 2 (As 1-x P x) 2,{'x': []},,31.0,0.0,,,
Eu Fe 2 (As 0.7 P 0.3) 2,{},"{'Eu': 1, 'Fe': 2, 'As': 1.4, 'P': 0.6}",26.0,90.0,,,
Eu Fe 2 As 2,{},"{'Eu': 1, 'Fe': 2, 'As': 2}",41.0,100.0,,,
(Ba 1-x K x) Fe 2 As 2,{'x': []},,38.0,0.0,,,10.1103/physrevb.89.224517
K Fe 2 As 2,{},"{'K': 1, 'Fe': 2, 'As': 2}",3.5,0.0,,,10.1103/physrevb.89.224517
Ca C 6,{},"{'Ca': 1, 'C': 6}",11.5,0.0,,,10.1080/09500839.2010.487473
Bi O Cu 1-y S,{'y': []},,6.0,0.0,,,10.1103/physrevb.81.140508
Mg B 2,{},"{'Mg': 1, 'B': 2}",33.0,0.0,films,,10.1063/1.1507828
Mg B 2,{},"{'Mg': 1, 'B': 2}",39.0,0.0,thin films,,10.1063/1.1507828
Mg B 2,{},"{'Mg': 1, 'B': 2}",33.0,0.0,,,10.1063/1.1507828
Ca 1-x La x Fe 1-y Co y As 2,"{'x': [0.2], 'y': []}",,37.5,0.0,sin- gle crystal,,10.1103/physrevb.96.184503
Ca 1-x La x Fe 1-y Co y As 2,"{'x': [0.2], 'y': []}",,37.5,0.0,,,10.1103/physrevb.96.184503
Ca 1-x La x Fe As 2,{'x': [0.27]},"{'Ca': 0.73, 'La': 0.27, 'Fe': 1, 'As': 2}",25.0,0.0,,,10.1103/physrevb.96.184503
Al,{},{'Al': 1},3.0,0.0,films,,10.1103/physrevb.100.104509
Y Ba 2 Cu 3 O 7-x,{'x': []},,25.0,0.0,single crystals,,10.1103/physrevb.63.064516
Nb,{},{'Nb': 1},9.2,0.0,crystalline,,10.1038/nphys2429
Y 0.66 Pr 0.34 Ba 2 Cu 3 O 7-δ,{'δ': []},,50.0,0.0,single crystal,,
Y 0.53 Pr 0.47 Ba 2 Cu 3 O 7-δ,{'δ': []},,34.0,0.0,single crystal,,
Y 0.87 Pr 0.13 Ba 2 Cu 3 O 7-δ,{'δ': []},,82.0,0.0,single crystal,,
Pu Co Ga 5,{},"{'Pu': 1, 'Co': 1, 'Ga': 5}",30.0,0.0,,,10.1143/jpsj.74.1710
Ce Ir In 5,{},"{'Ce': 1, 'Ir': 1, 'In': 5}",2.3,0.0,,,10.1143/jpsj.74.1710
Ce Co In 5,{},"{'Ce': 1, 'Co': 1, 'In': 5}",0.4,0.0,,,10.1143/jpsj.74.1710
Ce Ir In 5,{},"{'Ce': 1, 'Ir': 1, 'In': 5}",0.4,0.0,,,10.1143/jpsj.74.1710
Ce Co In 5,{},"{'Ce': 1, 'Co': 1, 'In': 5}",2.3,0.0,,,10.1143/jpsj.74.1710
Pu Rh Ga 5,{},"{'Pu': 1, 'Rh': 1, 'Ga': 5}",9.0,0.0,,,10.1143/jpsj.74.1710
Pu Co Ga 5,{},"{'Pu': 1, 'Co': 1, 'Ga': 5}",18.0,0.0,,,10.1143/jpsj.74.1710
Y Ba 2 Cu 4 O 8,{},"{'Y': 1, 'Ba': 2, 'Cu': 4, 'O': 8}",80.0,0.0,single crystals,,10.1103/physrevb.80.100505
Ga 1-x Mn x As,{'x': []},,70.0,0.0,,,10.1103/physrevb.66.100408
S Cs,{},"{'S': 1, 'Cs': 1}",1.1,0.0,,,10.1103/physrevb.86.064515
Mo 3 Al 2 C,{},"{'Mo': 3, 'Al': 2, 'C': 1}",9.2,0.0,,,10.1103/physrevb.86.064515
La Pt Bi 16,{},"{'La': 1, 'Pt': 1, 'Bi': 16}",0.9,0.0,,,10.1103/physrevb.86.064515
Ce Ir Si 3,{},"{'Ce': 1, 'Ir': 1, 'Si': 3}",1.6,0.0,,,10.1103/physrevb.86.064515
Li 2 Pt 3 B,{},"{'Li': 2, 'Pt': 3, 'B': 1}",2.6,0.0,,,10.1103/physrevb.86.064515
Ce Pt 3 Si,{},"{'Ce': 1, 'Pt': 3, 'Si': 1}",0.75,0.0,,,10.1103/physrevb.86.064515
Y Pt Bi,{},"{'Y': 1, 'Pt': 1, 'Bi': 1}",0.77,0.0,,,10.1103/physrevb.86.064515
Pr 0.88 La Ce 0.12 Cu O 4-δ,{'δ': []},,21.0,0.0,,,10.1103/physrevlett.96.157001
Pr 0.88 La Ce 0.12 Cu O 4-δ,{'δ': []},,25.0,0.0,,,10.1103/physrevlett.96.157001
Pb,{},{'Pb': 1},7.2,0.0,,,10.1103/physrevb.70.014519
Li Fe As,{},"{'Li': 1, 'Fe': 1, 'As': 1}",18.0,0.0,,,10.1103/physrevlett.102.227004
La Fe As O 1-x F x,{'x': []},,26.0,0.0,,,10.1103/physrevlett.102.227004
Bi 2 Sr 2 Ca Cu 2 O 8+δ,{'δ': []},,20.0,0.0,,,10.1088/1367-2630/13/6/065014
Bi 2 Sr 2 Dy 0.2 Ca 0.8 Cu 2 O 8+δ,{'δ': []},,45.0,0.0,,,10.1088/1367-2630/13/6/065014
Mg B 2,{},"{'Mg': 1, 'B': 2}",39.0,0.0,,,10.1103/physrevb.72.224512
Cu 0.03 Ta S 2,{},"{'Cu': 0.03, 'Ta': 1, 'S': 2}",4.03,0.0,,,10.1088/0953-8984/21/14/145701
Ca C 6,{},"{'Ca': 1, 'C': 6}",11.5,0.0,,,10.1088/0953-8984/21/14/145701
Ta Te 2,{},"{'Ta': 1, 'Te': 2}",2.5,0.0,,,
Hg Ba 2 Cu O 6,{},"{'Hg': 1, 'Ba': 2, 'Cu': 1, 'O': 6}",67.0,0.0,,,10.1038/s41467-018-06707-y
Hg Ba 2 Cu O 6,{},"{'Hg': 1, 'Ba': 2, 'Cu': 1, 'O': 6}",2.0,0.0,,,10.1038/s41467-018-06707-y
Ca Cu O 2,{},"{'Ca': 1, 'Cu': 1, 'O': 2}",110.0,0.0,,,
Nd Ni O 2,{},"{'Nd': 1, 'Ni': 1, 'O': 2}",110.0,0.0,,,
Mo Te 2,{},"{'Mo': 1, 'Te': 2}",10.0,0.0,,,10.1103/physrevb.98.205411
Mo S 2,{},"{'Mo': 1, 'S': 2}",10.0,0.0,,,10.1103/physrevb.98.205411
(La Sr) 2 Cu O 4,{},"{'La': 2, 'Sr': 2, 'Cu': 1, 'O': 4}",37.0,0.0,,,10.1117/12.455498
La 1.85 Ba 0.15 Cu O 4,{},"{'La': 1.85, 'Ba': 0.15, 'Cu': 1, 'O': 4}",45.0,0.0,,,10.1117/12.455498
(Nd Ce) 2 Cu O 4,{},"{'Nd': 2, 'Ce': 2, 'Cu': 1, 'O': 4}",25.0,0.0,,,10.1117/12.455498
Fe Se,{},"{'Fe': 1, 'Se': 1}",10.0,0.0,,,10.1103/physrevb.96.094517
La 2 O 2 Bi 3 Ag 0.6 Sn 0.4 S 6,{},"{'La': 2, 'O': 2, 'Bi': 3, 'Ag': 0.6, 'Sn': 0.4, 'S': 6}",2.5,0.0,,,10.1038/s41598-019-49934-z
La 2 O 2 Bi 3 Ag S 6,{},"{'La': 2, 'O': 2, 'Bi': 3, 'Ag': 1, 'S': 6}",0.5,0.0,,,10.1038/s41598-019-49934-z
La 2 O 2 Bi 3 Ag 0.6 Sn 0.4 S 5.7 Se 0.3,{},"{'La': 2, 'O': 2, 'Bi': 3, 'Ag': 0.6, 'Sn': 0.4, 'S': 5.7, 'Se': 0.3}",3.5,0.0,,,10.1038/s41598-019-49934-z
Mg B 2,{},"{'Mg': 1, 'B': 2}",40.0,0.0,,,10.1103/physrevb.65.212501
Sr x Bi 2 Se 3,{'x': []},,2.7,0.0,single crystals,,
Sr 0.06 Bi 2 Se 3,{},"{'Sr': 0.06, 'Bi': 2, 'Se': 3}",2.8,0.0,single-crystalline,,10.1063/1.5063729
Mg B 2,{},"{'Mg': 1, 'B': 2}",39.0,0.0,,,10.1103/physrevb.52.6293