Material,Substitutions,Composition,Tc (K),Pressure (GPa),Shape,Substrate,DOI
(K 1-x Sr x) Fe 2 As 2,{'x': []},,37.0,0.0,,,10.1103/physrevlett.101.107007
(Cs 1-x Sr x) Fe 2 As 2,{'x': []},,37.0,0.0,,,10.1103/physrevlett.101.107007
(Cs 1-x Sr x) Fe 2 As 2,{'x': []},,36.5,0.0,,,10.1103/physrevlett.101.107007
W O 3,{},"{'W': 1, 'O': 3}",4.0,0.0,,,10.1016/j.physc.2015.02.027
W O 3,{},"{'W': 1, 'O': 3}",90.0,0.0,,,10.1016/j.physc.2015.02.027
Hg Ba 2 Ca 2 Cu 3 O 9,{},"{'Hg': 1, 'Ba': 2, 'Ca': 2, 'Cu': 3, 'O': 9}",164.0,30.0,,,10.1016/j.physc.2015.02.027
Hg,{},{'Hg': 1},4.2,0.0,,,10.1016/j.physc.2015.02.027
W O 2.6,{},"{'W': 1, 'O': 2.6}",7.0,0.0,films,,10.1016/j.physc.2015.02.027
La Ba 2 Cu 3 O y,{'y': []},,90.0,0.0,,,10.1016/j.physc.2015.02.027
S,{},{'S': 1},6.7,0.0,,,10.1016/j.physc.2015.02.027
Ba (Fe 1-x Co x) 2 As 2,{'x': [0.071]},"{'Ba': 1, 'Fe': 1.858, 'Co': 0.142, 'As': 2}",23.0,0.0,,,10.7566/jpsj.86.064706
Fe Se,{},"{'Fe': 1, 'Se': 1}",18.0,0.0,,,10.7566/jpsj.86.064706
Ba Fe 2 As 2,{},"{'Ba': 1, 'Fe': 2, 'As': 2}",56.0,0.0,,,10.7566/jpsj.86.064706
Th Cr 2 Si 2,{},"{'Th': 1, 'Cr': 2, 'Si': 2}",38.0,0.0,,,10.7566/jpsj.86.064706
C 66,{},{'C': 66},16.0,0.0,,,10.7566/jpsj.86.064706
C 66,{},{'C': 66},23.0,0.0,,,10.7566/jpsj.86.064706
Pb F Cl,{},"{'Pb': 1, 'F': 1, 'Cl': 1}",10.0,0.0,,,10.7566/jpsj.86.064706
Si H 4,{},"{'Si': 1, 'H': 4}",17.0,96.0,,,10.1016/j.solidstatesciences.2013.07.023
Pb,{},{'Pb': 1},7.2,0.0,,,10.1038/nphys2794
La 1.905 Ba 0.095 Cu O 4,{},"{'La': 1.905, 'Ba': 0.095, 'Cu': 1, 'O': 4}",32.0,0.0,single crystal,,10.1103/physrevb.98.020506
La 1.905 Ba 0.095 Cu O 4,{},"{'La': 1.905, 'Ba': 0.095, 'Cu': 1, 'O': 4}",32.0,0.0,single crys- tal,,10.1103/physrevb.98.020506
Sr 2 Ru O 4,{},"{'Sr': 2, 'Ru': 1, 'O': 4}",1.5,0.0,,,10.1103/physrevb.91.155103
Ba Fe 2 S 3,{},"{'Ba': 1, 'Fe': 2, 'S': 3}",14.0,11.0,,,10.1038/nmat4351
La Fe As O 1-x F x,{'x': []},,26.0,0.0,,,10.1143/jpsjs.77sc.99
Ba Fe 2.1 (As 0.7 P 0.3) 1.9,{},"{'Ba': 1, 'Fe': 2.1, 'As': 1.3299999999999998, 'P': 0.57}",30.0,0.0,single crystals,,10.1038/nphys2248
Ba Fe 2 (As 0.7 P 0.3) 2,{},"{'Ba': 1, 'Fe': 2, 'As': 1.4, 'P': 0.6}",30.0,0.0,,,10.1038/nphys2248
Ba Fe 2 (As 0.7 P 0.3) 2,{},"{'Ba': 1, 'Fe': 2, 'As': 1.4, 'P': 0.6}",30.0,0.0,single crys- tal,,10.1038/nphys2248
Bi 2 Sr 2 Ca Cu 2 O 8,{},"{'Bi': 2, 'Sr': 2, 'Ca': 1, 'Cu': 2, 'O': 8}",58.0,0.0,,,
La Fe As O,{},"{'La': 1, 'Fe': 1, 'As': 1, 'O': 1}",26.0,0.0,,,10.1143/jpsj.78.103704
Ba 1-x K x Fe 2 As 2,{'x': []},,38.0,0.0,,,10.1143/jpsj.78.103704
Fe (Se 0.25 Te 0.75) 0.92,{},"{'Fe': 1, 'Se': 0.23, 'Te': 0.6900000000000001}",8.0,0.0,,,10.1143/jpsj.78.103704
Mg 9.3 Ir 19 B 16.7,{},"{'Mg': 9.3, 'Ir': 19, 'B': 16.7}",5.8,0.0,,,10.1103/physrevb.80.060503
Mg 10.5 Ir 19 B 17.1,{},"{'Mg': 10.5, 'Ir': 19, 'B': 17.1}",4.8,0.0,,,10.1103/physrevb.80.060503
Mg 12 Ir 19 B 19,{},"{'Mg': 12, 'Ir': 19, 'B': 19}",5.0,0.0,,,10.1103/physrevb.80.060503
Fe Te 1-x Se x,{'x': []},,14.0,0.0,,,
Fe Se,{},"{'Fe': 1, 'Se': 1}",8.5,0.0,,,
Fe 1+y Te,{'y': []},,14.0,0.0,,,10.1103/physrevb.79.054503
Fe 1+y Se x Te 1-x,"{'x': [], 'y': []}",,14.0,0.0,,,10.1103/physrevb.79.054503
Zr Zn 2,{},"{'Zr': 1, 'Zn': 2}",0.6,0.0,,,10.1103/physrevlett.90.057003
Pr O 0.5 F 0.5 Bi S 2,{},"{'Pr': 1, 'O': 0.5, 'F': 0.5, 'Bi': 1, 'S': 2}",3.7,0.0,,,10.1016/j.jpcs.2014.12.005
Bi 4 O 4 S 3,{},"{'Bi': 4, 'O': 4, 'S': 3}",4.0,0.0,,,10.1016/j.jpcs.2014.12.005
Bi 2 S 3,{},"{'Bi': 2, 'S': 3}",4.0,0.0,,,10.1016/j.jpcs.2014.12.005
Pr O 0.5 F 0.5 Bi S 2,{},"{'Pr': 1, 'O': 0.5, 'F': 0.5, 'Bi': 1, 'S': 2}",4.0,0.0,,,10.1016/j.jpcs.2014.12.005
Pr O 0.5 F 0.5 Bi S 2,{},"{'Pr': 1, 'O': 0.5, 'F': 0.5, 'Bi': 1, 'S': 2}",6.0,0.0,,,10.1016/j.jpcs.2014.12.005
Sn 63 Pb 37,{},"{'Sn': 63, 'Pb': 37}",4.0,0.0,,,
Nb N,{},"{'Nb': 1, 'N': 1}",16.0,0.0,,,10.1016/j.physc.2010.02.008
Au 1-x Pt x Te 2,{'x': []},,4.0,0.0,,,10.7566/jpsj.82.063704
Au 0.65 Pt 0.35 Te 2,{},"{'Au': 0.65, 'Pt': 0.35, 'Te': 2}",4.0,0.0,,,10.7566/jpsj.82.063704
Ir 0.94-x Rh x Se 2,{'x': []},,2.9,0.0,,,10.7566/jpsj.82.063704
Au Te 2,{},"{'Au': 1, 'Te': 2}",4.0,0.0,,,10.7566/jpsj.82.063704
La 2-x,{'x': []},,40.0,0.0,,,10.1103/physrevb.87.045113
Cu O 4,{},"{'Cu': 1, 'O': 4}",40.0,0.0,,,10.1103/physrevb.87.045113
Hg Ba 2 Cu O 4+δ,{'δ': []},,90.0,0.0,,,10.1103/physrevb.87.045113
Pd Te 2,{},"{'Pd': 1, 'Te': 2}",1.6,0.0,,,10.1088/1361-648x/aaed31
Pd Te 2,{},"{'Pd': 1, 'Te': 2}",1.67,0.0,crystals,,10.1088/1361-648x/aaed31
Fe Te,{},"{'Fe': 1, 'Te': 1}",13.0,0.0,,,10.1103/physrevlett.104.017003
Bi 2 Sr 2 Ca Cu 2 O 8+δ,{'δ': []},,90.0,0.0,,,10.1103/physrevb.71.014517
Bi 2 Sr 2 Ca Cu 2 O 8,{},"{'Bi': 2, 'Sr': 2, 'Ca': 1, 'Cu': 2, 'O': 8}",90.0,0.0,,,10.1103/physrevb.71.014517
Bi 2 Sr 2 Cu O 6,{},"{'Bi': 2, 'Sr': 2, 'Cu': 1, 'O': 6}",40.0,0.0,,,10.1103/physrevb.71.014517
Ba 0.72 K 0.28 Fe 2 As 2,{},"{'Ba': 0.72, 'K': 0.28, 'Fe': 2, 'As': 2}",28.0,0.0,,,10.1088/0953-8984/22/11/115802
Sr 0.85 K 0.15 Fe 2 As 2,{},"{'Sr': 0.85, 'K': 0.15, 'Fe': 2, 'As': 2}",32.0,0.0,,,10.1088/0953-8984/22/11/115802
Ba Fe 2 As 2,{},"{'Ba': 1, 'Fe': 2, 'As': 2}",138.0,0.0,,,10.1088/0953-8984/22/11/115802
Sm Fe As O 1-x F x,{'x': []},,55.0,0.0,,,10.1103/physrevb.83.140506
Ba 0.68 K 0.32 Fe 2 As 2,{},"{'Ba': 0.68, 'K': 0.32, 'Fe': 2, 'As': 2}",38.5,0.0,single-crystal,,10.1103/physrevb.83.140506
Ba 0.68 K 0.32 Fe 2 As 2,{},"{'Ba': 0.68, 'K': 0.32, 'Fe': 2, 'As': 2}",38.5,0.0,single crystal,,10.1103/physrevb.83.140506
Sr 2 Ru O 4,{},"{'Sr': 2, 'Ru': 1, 'O': 4}",1.0,0.0,,,10.1209/epl/i2000-00531-8
Sr Ru O 3,{},"{'Sr': 1, 'Ru': 1, 'O': 3}",104.0,0.0,,,10.1209/epl/i2000-00531-8
Au 0.9 In 0.1,{},"{'Au': 0.9, 'In': 0.1}",77.0,0.0,,,10.1007/s10909-007-9345-6
La Fe P O,{},"{'La': 1, 'Fe': 1, 'P': 1, 'O': 1}",5.0,0.0,,,
Mg B 2,{},"{'Mg': 1, 'B': 2}",39.0,0.0,,,10.1103/physrevb.65.012502
C,{},{'C': 1},60.0,0.0,,,
Mg B 2,{},"{'Mg': 1, 'B': 2}",40.0,0.0,,,10.1103/physrevlett.93.237002
Mg B 2,{},"{'Mg': 1, 'B': 2}",25.0,0.0,,,10.1103/physrevlett.93.237002
Re O 1-x F x Fe As,{'x': []},,50.0,0.0,,,10.1103/physrevb.79.064516
La O Fe As,{},"{'La': 1, 'O': 1, 'Fe': 1, 'As': 1}",26.0,0.0,,,10.1103/physrevb.79.064516
Sr Pt 2 As 2,{},"{'Sr': 1, 'Pt': 2, 'As': 2}",2.4,0.0,,,10.1007/s10948-012-1550-0
La Fe As O 1-x F x,{'x': []},,28.0,0.0,,,
Pb 0.9 Bi 0.1,{},"{'Pb': 0.9, 'Bi': 0.1}",6.0,0.0,ultrathin films,,10.1103/physrevb.53.359
Bi 2 Sr 2 Ca Cu 2 O 8+x,{'x': []},,85.0,0.0,,,10.1007/bf02471928
Fe Te 0.6 Se 0.4,{},"{'Fe': 1, 'Te': 0.6, 'Se': 0.4}",13.0,0.0,,,10.1126/science.aab0103
Li Fe As,{},"{'Li': 1, 'Fe': 1, 'As': 1}",18.0,0.0,,,10.1088/0953-8984/22/20/203203
Ba Fe 1.84 Co 0.16 As 2,{},"{'Ba': 1, 'Fe': 1.84, 'Co': 0.16, 'As': 2}",22.0,0.0,,,10.1088/0953-8984/22/20/203203
Fe 1+y Te 1-x Se x,"{'x': [0.5], 'y': []}",,15.0,0.0,,,10.1088/0953-8984/22/20/203203
Fe 1.01 Se,{},"{'Fe': 1.01, 'Se': 1}",8.0,0.0,,,10.1088/0953-8984/22/20/203203
Fe Se,{},"{'Fe': 1, 'Se': 1}",8.0,0.0,,,10.1088/0953-8984/22/20/203203
Sr 2 Sc 0.4 Ti 0.6 O 3,{},"{'Sr': 2, 'Sc': 0.4, 'Ti': 0.6, 'O': 3}",45.0,0.0,,,10.1088/0953-8984/22/20/203203
La Fe As O,{},"{'La': 1, 'Fe': 1, 'As': 1, 'O': 1}",26.0,0.0,,,10.1088/0953-8984/22/20/203203
Ba Fe 1.85 Co 0.15 As 2,{},"{'Ba': 1, 'Fe': 1.85, 'Co': 0.15, 'As': 2}",25.0,0.0,,,10.1088/0953-8984/22/20/203203
Fe Te 0.51 Se 0.49,{},"{'Fe': 1, 'Te': 0.51, 'Se': 0.49}",14.0,0.0,,,10.1088/0953-8984/22/20/203203
Ba 1-x K x Fe 2 As 2,{'x': []},,38.0,0.0,,,10.1088/0953-8984/22/20/203203
Ba Fe 1.92 Co 0.08 As 2,{},"{'Ba': 1, 'Fe': 1.92, 'Co': 0.08, 'As': 2}",11.0,0.0,,,10.1088/0953-8984/22/20/203203
Fe 1.03 Se,{},"{'Fe': 1.03, 'Se': 1}",0.6,0.0,,,10.1088/0953-8984/22/20/203203
Ba 1.9 Ni 0.1 As 2,{},"{'Ba': 1.9, 'Ni': 0.1, 'As': 2}",20.0,0.0,,,10.1088/0953-8984/22/20/203203
Gd 1-x Th x Fe As O,{'x': []},,56.0,0.0,,,10.1088/0953-8984/22/20/203203
Ba Fe 1.9 Ni 0.1 As 2,{},"{'Ba': 1, 'Fe': 1.9, 'Ni': 0.1, 'As': 2}",20.0,0.0,,,10.1088/0953-8984/22/20/203203
Sr 2 V O 3,{},"{'Sr': 2, 'V': 1, 'O': 3}",37.2,0.0,,,10.1088/0953-8984/22/20/203203
Cu x Bi 2 Se 3,{'x': []},,3.8,0.0,,,10.1103/physrevb.90.100509
Y Ba 2 Cu 3 O 6.6,{},"{'Y': 1, 'Ba': 2, 'Cu': 3, 'O': 6.6}",61.0,0.0,,,
Fe 1.06 Te 0.88 S 0.14,{},"{'Fe': 1.06, 'Te': 0.88, 'S': 0.14}",8.0,0.0,,,10.1103/physrevb.81.174518
Ba Fe 2-x Co x As 2,{'x': []},,22.0,0.0,,,10.1103/physrevb.81.174518
Eu Fe 2 As 2,{},"{'Eu': 1, 'Fe': 2, 'As': 2}",29.0,0.0,,,10.1103/physrevb.80.184514
Ba Fe 2-x Ni x As 2,{'x': [0.15]},"{'Ba': 1, 'Fe': 1.85, 'Ni': 0.15, 'As': 2}",20.0,0.0,,,10.1103/physrevb.80.184514
Ba Fe 2-x Co x As 2,{'x': []},,25.0,0.0,,,10.1103/physrevb.80.184514
Eu Fe 2 (As 0.7 P 0.3) 2,{},"{'Eu': 1, 'Fe': 2, 'As': 1.4, 'P': 0.6}",26.0,0.0,,,10.1103/physrevb.80.184514
La Fe As O 1-x F x,{'x': []},,26.0,0.0,,,10.1088/0953-8984/27/33/335504
Ba 0.6 K 0.4 Fe 2 As 2,{},"{'Ba': 0.6, 'K': 0.4, 'Fe': 2, 'As': 2}",38.0,0.0,,,10.1088/0953-8984/27/33/335504
Ba Fe 2-y Ni y As 2,{'y': [0.18]},"{'Ba': 1, 'Fe': 1.82, 'Ni': 0.18, 'As': 2}",8.0,0.0,,,10.1103/physrevb.100.100502
In,{},{'In': 1},3.5,0.0,film,,10.1103/physrevb.84.014532
C S,{},"{'C': 1, 'S': 1}",30.0,0.0,,,10.1103/physrevb.73.165128
Na,{},{'Na': 1},5.0,0.0,,,10.1103/physrevb.73.165128
C 60,{},{'C': 60},52.0,0.0,,,10.1103/physrevb.73.165128
S,{},{'S': 1},35.0,0.0,,,10.1103/physrevb.73.165128
Mg B 2,{},"{'Mg': 1, 'B': 2}",39.0,0.0,,,10.1103/physrevb.73.165128
Ga As,{},"{'Ga': 1, 'As': 1}",1.1,0.0,,,10.1103/physrevb.73.165128
Cs,{},{'Cs': 1},1.5,30.0,,,
Rb,{},{'Rb': 1},0.05,21.0,,,
Bi 2 Sr 2 Ca Cu 2 O 8,{},"{'Bi': 2, 'Sr': 2, 'Ca': 1, 'Cu': 2, 'O': 8}",96.0,0.0,,,10.1103/physrevb.69.064512
Bi 2 Sr 2 Ca Cu 2 O 8+δ,{'δ': []},,96.0,0.0,,,10.1103/physrevb.69.064512
Tl Ba 2 Ca 2 Cu 3 O 9+δ,{'δ': []},,120.0,0.0,,,10.1103/physrevb.69.064512
Bi,{},{'Bi': 1},10.0,0.0,,,10.1103/physrevb.69.064512
La O Ni Bi,{},"{'La': 1, 'O': 1, 'Ni': 1, 'Bi': 1}",4.2,0.0,,,10.1103/physrevb.78.104519
La O Ni As,{},"{'La': 1, 'O': 1, 'Ni': 1, 'As': 1}",2.75,0.0,,,10.1103/physrevb.78.104519
La O Cu Bi,{},"{'La': 1, 'O': 1, 'Cu': 1, 'Bi': 1}",6.0,0.0,,,10.1103/physrevb.78.104519
La O 1-x F x Fe As,{'x': [0.05]},"{'La': 1, 'O': 0.95, 'F': 0.05, 'Fe': 1, 'As': 1}",26.0,0.0,,,10.1103/physrevb.78.104519
Mg B 2,{},"{'Mg': 1, 'B': 2}",39.0,0.0,,,10.1016/s0921-4534(02)02317-1
Y Ba 2 Cu 3 O 6.6,{},"{'Y': 1, 'Ba': 2, 'Cu': 3, 'O': 6.6}",61.0,0.0,crystal,,10.1038/nphys720
Y Ba 2 Cu 3 O 6.6,{},"{'Y': 1, 'Ba': 2, 'Cu': 3, 'O': 6.6}",61.0,0.0,single crystals,,10.1038/nphys720
Ba (Fe 1-x Co x) 2 As 2,{'x': [0.075]},"{'Ba': 1, 'Fe': 1.85, 'Co': 0.15, 'As': 2}",22.0,0.0,,,10.1103/physrevb.95.144513
K x Ba 1-x Fe 2 As 2,{'x': [0.4]},"{'K': 0.4, 'Ba': 0.6, 'Fe': 2, 'As': 2}",30.0,0.0,,,10.1103/physrevb.95.144513
La 2-x Ba x Cu O 4,{'x': []},,35.0,0.0,,,10.1016/b978-012613760-6/50067-x
U Pd 2 Al 3,{},"{'U': 1, 'Pd': 2, 'Al': 3}",2.0,0.0,,,10.1016/b978-012613760-6/50067-x
Mg B 2,{},"{'Mg': 1, 'B': 2}",39.0,0.0,,,10.1103/physrevb.64.104507
Ca Si 2,{},"{'Ca': 1, 'Si': 2}",14.0,0.0,,,10.1103/physrevb.64.104507
Bi 2 Sr 2 Ca 2 Cu 3 O 10,{},"{'Bi': 2, 'Sr': 2, 'Ca': 2, 'Cu': 3, 'O': 10}",110.0,0.0,,,10.1103/physrevb.74.024502
Bi 2 Sr 2 Ca 2 Cu 3 O 10,{},"{'Bi': 2, 'Sr': 2, 'Ca': 2, 'Cu': 3, 'O': 10}",110.0,0.0,single crystals,,10.1103/physrevb.74.024502
Cu x Bi 2 Se 3,{'x': []},,3.8,0.0,,,10.1103/physrevlett.119.187003
Eu (Gd) Sr 2 Ru Cu 2 O 8,{},"{'Eu': 1, 'Gd': 1, 'Sr': 2, 'Ru': 1, 'Cu': 2, 'O': 8}",104.0,0.0,,,
Sr 4 Ru 3 O 10,{},"{'Sr': 4, 'Ru': 3, 'O': 10}",104.0,0.0,,,
Mg B 2,{},"{'Mg': 1, 'B': 2}",40.0,0.0,,,10.1134/s1063776107010062
Mg B 2,{},"{'Mg': 1, 'B': 2}",39.0,0.0,,,10.1134/s1063776107010062
La Fe As O 1-x F x,{'x': []},,26.0,0.0,,,10.1103/physrevb.78.104512
Zr Te 3,{},"{'Zr': 1, 'Te': 3}",5.0,0.0,,,10.1038/srep45217
Ta Se 3,{},"{'Ta': 1, 'Se': 3}",2.1,0.0,,,10.1038/srep45217
Hf Te 3,{},"{'Hf': 1, 'Te': 3}",4.8,20.0,,,10.1038/srep45217
Hf Te 5,{},"{'Hf': 1, 'Te': 5}",4.5,11.0,,,10.1038/srep45217
Fe Se,{},"{'Fe': 1, 'Se': 1}",8.5,0.0,,,10.1103/physrevb.92.134517
Sr,{},{'Sr': 1},4.2,0.0,,,10.1103/physrevb.92.134517
Fe Se,{},"{'Fe': 1, 'Se': 1}",4.2,0.0,,,10.1103/physrevb.92.134517
Ce Co In 5,{},"{'Ce': 1, 'Co': 1, 'In': 5}",2.3,0.0,,,10.1103/physrevb.86.085147
Sr x Bi 2 Se 3,{'x': []},,3.0,0.0,crystals,,10.1088/1367-2630/aae595
Sr x Bi 2 Se 3,{'x': []},,5.0,0.0,,,10.1088/1367-2630/aae595
Bi 2 Se 3,{},"{'Bi': 2, 'Se': 3}",3.0,0.0,,,10.1088/1367-2630/aae595
La (O 1-x F x) Fe As,{'x': []},,26.0,0.0,,,10.1209/0295-5075/84/47002
Sm Fe As O 0.85,{},"{'Sm': 1, 'Fe': 1, 'As': 1, 'O': 0.85}",55.0,0.0,,,10.1209/0295-5075/84/47002
La (O 1-x F x) Fe P,{'x': []},,5.0,0.0,,,10.1209/0295-5075/84/47002
K F S S C,{},"{'K': 1, 'F': 1, 'S': 2, 'C': 1}",32.0,0.0,,,10.1103/physrevb.85.214503
K 0.73 Fe 1.67 Se 2,{},"{'K': 0.73, 'Fe': 1.67, 'Se': 2}",32.0,0.0,,,10.1103/physrevb.85.214503
K F S I,{},"{'K': 1, 'F': 1, 'S': 1, 'I': 1}",32.0,0.0,,,10.1103/physrevb.85.214503
K 0.8 Fe 2-y Se 2,{'y': []},,30.0,0.0,,,10.1103/physrevb.85.214503
K 0.73 Fe 1.67 Se 2,{},"{'K': 0.73, 'Fe': 1.67, 'Se': 2}",32.0,0.0,single crystals,,10.1103/physrevb.85.214503
K Os 2 O 6,{},"{'K': 1, 'Os': 2, 'O': 6}",9.5,0.0,,,10.1103/physrevb.73.094518
Rb Os 2 O 6,{},"{'Rb': 1, 'Os': 2, 'O': 6}",6.4,0.0,,,10.1103/physrevb.73.094518
Bi 2 Sr 2 Ca Cu 2 O 8+y,{'y': []},,84.0,0.0,single crystal,,10.1103/physrevb.84.100504
Nb Se 2,{},"{'Nb': 1, 'Se': 2}",7.2,0.0,,,10.1103/physrevb.87.094505
(Ba 1-x K x) Fe 2 As 2,{'x': []},,28.0,0.0,,,10.1103/physrevb.87.094505
(Ba 1-x K x) Fe 2 As 2,{'x': []},,4.2,0.0,,,10.1103/physrevb.87.094505
K Fe 2 As 2,{},"{'K': 1, 'Fe': 2, 'As': 2}",28.0,0.0,,,10.1103/physrevb.87.094505
Ce Co In 5,{},"{'Ce': 1, 'Co': 1, 'In': 5}",2.3,0.0,,,10.1103/physrevlett.89.137002
Eu Fe 2 As 2,{},"{'Eu': 1, 'Fe': 2, 'As': 2}",26.0,0.0,,,
Eu 0.5 K 0.5 Fe 2 As 2,{},"{'Eu': 0.5, 'K': 0.5, 'Fe': 2, 'As': 2}",31.0,0.0,,,
Hg Ba 2 Ca 2 Cu 3 O 8+δ,{'δ': []},,164.0,31.0,,,10.1155/2015/969564
Li Fe As,{},"{'Li': 1, 'Fe': 1, 'As': 1}",17.0,0.0,,,10.1088/0953-2048/25/8/084006
Mg B 2,{},"{'Mg': 1, 'B': 2}",39.0,0.0,,,10.1088/0953-2048/25/8/084006
La Fe As O 0.89 F 0.11,{},"{'La': 1, 'Fe': 1, 'As': 1, 'O': 0.89, 'F': 0.11}",26.0,0.0,,,10.1088/0953-2048/25/8/084006
Y Ni 2 B 2 C 38,{},"{'Y': 1, 'Ni': 2, 'B': 2, 'C': 38}",15.0,0.0,,,10.1088/0953-2048/25/8/084006
La Fe As O 1-x F x,{'x': []},,5.0,0.0,,,10.1088/0953-2048/25/8/084006
Sm Fe As O,{},"{'Sm': 1, 'Fe': 1, 'As': 1, 'O': 1}",50.0,0.0,,,10.1088/0953-2048/25/8/084006
Sn Sb,{},"{'Sn': 1, 'Sb': 1}",1.5,0.0,,,10.1088/1361-6668/aae6fe
K x Fe 2-y Se 2,"{'x': [], 'y': []}",,32.0,0.0,,,10.1103/physrevb.84.052507
Rb x Fe 2-y Se 2,"{'x': [], 'y': []}",,32.0,0.0,,,10.1103/physrevb.84.052507
Cs x Fe 2-y Se 2,"{'x': [], 'y': []}",,32.0,0.0,,,10.1103/physrevb.84.052507
Tl x Fe 2-y Se 2,"{'x': [], 'y': []}",,32.0,0.0,,,10.1103/physrevb.84.052507
La Fe As O 1-x F x,{'x': []},,26.0,0.0,,,10.1103/physrevb.84.052507
Ba Fe 2-x Co x As 2,{'x': []},,25.0,0.0,,,10.1103/physrevb.86.140505
Ba Fe 2-x Ru x As 2,{'x': []},,25.0,0.0,,,10.1103/physrevb.86.140505
Y Pd Bi,{},"{'Y': 1, 'Pd': 1, 'Bi': 1}",1.6,0.0,,,10.1126/sciadv.1500242
Gd Pd Bi,{},"{'Gd': 1, 'Pd': 1, 'Bi': 1}",20.0,0.0,,,10.1126/sciadv.1500242
Mo 2 N,{},"{'Mo': 2, 'N': 1}",8.0,0.0,films,,10.1109/tasc.2018.2809442
Y Ba 2 Cu 4 O 7,{},"{'Y': 1, 'Ba': 2, 'Cu': 4, 'O': 7}",6.0,0.0,,,
Y Ba 2 Cu 4 O 8,{},"{'Y': 1, 'Ba': 2, 'Cu': 4, 'O': 8}",80.0,0.0,,,
(Y 0.9 Ca 0.1) Ba 2 Cu 4 O 8,{},"{'Y': 0.9, 'Ca': 0.1, 'Ba': 2, 'Cu': 4, 'O': 8}",90.0,0.0,,,
Fe Se,{},"{'Fe': 1, 'Se': 1}",40.0,0.0,film,,10.1038/nphys3530
Fe Se,{},"{'Fe': 1, 'Se': 1}",40.0,0.0,ultrathin,,10.1038/nphys3530
Fe Se,{},"{'Fe': 1, 'Se': 1}",40.0,0.0,,,10.1038/nphys3530
Fe Se,{},"{'Fe': 1, 'Se': 1}",8.2,0.0,,,10.1038/nphys3530
Ca 3 Rh 4 Sn 13,{},"{'Ca': 3, 'Rh': 4, 'Sn': 13}",8.2,0.0,single crystal,,10.1007/bf02704946
Yb 3 Rh 4 Sn 13,{},"{'Yb': 3, 'Rh': 4, 'Sn': 13}",7.6,0.0,single crystals,,10.1007/bf02704946
Yb 3 Rh 4 Sn 13,{},"{'Yb': 3, 'Rh': 4, 'Sn': 13}",7.6,0.0,single crystal,,10.1007/bf02704946
La Fe As O 1-x F x,{'x': []},,27.0,0.0,polycrystals,,10.1016/j.physc.2009.03.039
Sm Fe As O 0.8 F 0.2,{},"{'Sm': 1, 'Fe': 1, 'As': 1, 'O': 0.8, 'F': 0.2}",53.0,0.0,polycrystals,,10.1016/j.physc.2009.03.039
Ag,{},{'Ag': 1},52.0,0.0,,,10.1016/j.physc.2009.03.039
U Ru 2 Si 2,{},"{'U': 1, 'Ru': 2, 'Si': 2}",140.0,0.0,,,10.1016/j.physc.2009.03.039
La Fe As O 1-x F x,{'x': []},,31.0,0.0,,,10.1016/j.physc.2009.03.039
Sm Fe As O 0.8 F 0.2,{},"{'Sm': 1, 'Fe': 1, 'As': 1, 'O': 0.8, 'F': 0.2}",1.0,0.0,,,10.1016/j.physc.2009.03.039
Bi 2 Sr 2 Ca Cu 2 O 8+δ,{'δ': []},,71.0,0.0,,,10.1080/00018730600645636
Bi 2 Sr 2 Ca Cu 2 O 8+δ,{'δ': []},,65.0,0.0,,,10.1080/00018730600645636
Bi 2 Sr 2 Ca Cu 2 O 8+δ,{'δ': []},,90.0,0.0,,,10.1080/00018730600645636
Y Ba 2 Cu 3 O 6.6,{},"{'Y': 1, 'Ba': 2, 'Cu': 3, 'O': 6.6}",62.7,0.0,,,10.1080/00018730600645636
Bi (La),{},"{'Bi': 1, 'La': 1}",32.0,0.0,,,10.1080/00018730600645636
Bi 2 Sr 2 Ca Cu 2 O 8+δ,{'δ': []},,76.0,0.0,,,10.1080/00018730600645636
Y Ba 2 Cu 3 O 6.85,{},"{'Y': 1, 'Ba': 2, 'Cu': 3, 'O': 6.85}",89.0,0.0,,,10.1080/00018730600645636
Bi (Pb) 2 Sr 2 Ca Cu 2 O 8-δ,{'δ': []},,77.0,0.0,,,10.1080/00018730600645636
Bi 2 Sr 2 Ca Cu 2 O 8+δ,{'δ': []},,89.0,0.0,,,10.1080/00018730600645636
Bi 2 Sr 2 Ca 2 Cu 3 O 10+δ,{'δ': []},,108.0,0.0,,,10.1080/00018730600645636
Bi 2 Sr 2 Ca Cu 2 O 8-δ,{'δ': []},,82.0,0.0,,,10.1080/00018730600645636
Bi 2 Sr 2 Ca Cu 2 O 8+δ,{'δ': []},,91.0,0.0,,,10.1080/00018730600645636
(Bi Pb) 2 (Sr La) 2 Cu O 6+δ,{'δ': []},,4.0,0.0,,,10.1080/00018730600645636
Y Ba 2 Cu 3 O 6.5,{},"{'Y': 1, 'Ba': 2, 'Cu': 3, 'O': 6.5}",59.0,0.0,single crystal,,10.1080/00018730600645636
Bi 2 Sr 2 Ca Cu 2 O 8+δ,{'δ': []},,58.0,0.0,,,10.1080/00018730600645636
Y Ba 2 Cu 3 O 6+x,{'x': []},,74.0,0.0,,,10.1080/00018730600645636
Bi 2 Sr 2 Ca Cu 2 O 8+δ,{'δ': []},,69.0,0.0,,,10.1080/00018730600645636
Bi (Pb),{},"{'Bi': 1, 'Pb': 1}",75.0,0.0,,,10.1080/00018730600645636
Tl 2 Ba 2 Cu O 6+δ,{'δ': []},,63.0,0.0,,,10.1080/00018730600645636
Bi (Pb) 2 Sr 2 Ca Cu 2 O 8+δ,{'δ': []},,69.0,0.0,,,10.1080/00018730600645636
Bi 2 Sr 2 Ca Cu 2 O 8+δ,{'δ': []},,83.0,0.0,,,10.1080/00018730600645636
Tl 2 Ba 2 Cu O 6+δ,{'δ': []},,90.0,0.0,,,10.1080/00018730600645636
Y Ba 2 Cu 4 O 8,{},"{'Y': 1, 'Ba': 2, 'Cu': 4, 'O': 8}",82.0,0.0,,,10.1080/00018730600645636
Y Ba 2 (Cu 1-y Ni y) 3 O 7,{'y': []},,80.0,0.0,,,10.1080/00018730600645636
Sr 2 Ca Cu 2 O 8+δ,{'δ': []},,73.0,0.0,,,10.1080/00018730600645636
Y 0.9 Ca 0.1 Ba 2 Cu 3 O 7,{},"{'Y': 0.9, 'Ca': 0.1, 'Ba': 2, 'Cu': 3, 'O': 7}",85.5,0.0,,,10.1080/00018730600645636
Bi (Pb),{},"{'Bi': 1, 'Pb': 1}",77.0,0.0,,,10.1080/00018730600645636
O 6.4,{},{'O': 6.4},34.0,0.0,,,
Pr Os 4 Sb 12,{},"{'Pr': 1, 'Os': 4, 'Sb': 12}",1.85,0.0,,,10.1103/physrevb.77.134517
La 0.7 Ce 0.3 O Bi S Se,{},"{'La': 0.7, 'Ce': 0.3, 'O': 1, 'Bi': 1, 'S': 1, 'Se': 1}",2.7,0.0,,,
Bi 4 O 4 S 3,{},"{'Bi': 4, 'O': 4, 'S': 3}",2.7,0.0,,,
Mg B 2,{},"{'Mg': 1, 'B': 2}",39.0,0.0,,,10.1007/s10948-018-4599-6
Ba 0.6 K 0.4 Bi O 3,{},"{'Ba': 0.6, 'K': 0.4, 'Bi': 1, 'O': 3}",32.0,0.0,,,
W B 4.2,{},"{'W': 1, 'B': 4.2}",0.5,0.0,,,10.1088/1361-6668/aade5a
Mg B 2,{},"{'Mg': 1, 'B': 2}",39.0,0.0,,,10.1088/1361-6668/aade5a
W B 4.2,{},"{'W': 1, 'B': 4.2}",2.0,0.0,,,10.1088/1361-6668/aade5a
Nb B 2,{},"{'Nb': 1, 'B': 2}",5.2,0.0,,,10.1088/1361-6668/aade5a
Fe Se,{},"{'Fe': 1, 'Se': 1}",13.2,0.0,,,10.1016/0375-9601(95)00211-k
Fe Se,{},"{'Fe': 1, 'Se': 1}",9.0,0.0,,,10.1016/0375-9601(95)00211-k
Fe Se,{},"{'Fe': 1, 'Se': 1}",14.0,0.0,films,,10.1016/0375-9601(95)00211-k
Na Fe As 0.8 P 0.2,{},"{'Na': 1, 'Fe': 1, 'As': 0.8, 'P': 0.2}",33.0,0.0,,,10.1103/physrevb.83.132501
K Fe 2 As 2,{},"{'K': 1, 'Fe': 2, 'As': 2}",4.0,0.0,,,10.1103/physrevb.83.132501
Fe Se,{},"{'Fe': 1, 'Se': 1}",40.0,0.0,,,10.1038/natrevmats.2016.94
Fe Se,{},"{'Fe': 1, 'Se': 1}",8.0,0.0,,,10.1038/natrevmats.2016.94
Pb,{},{'Pb': 1},1.5,0.0,,,10.1038/natrevmats.2016.94
Sr Ti O 3,{},"{'Sr': 1, 'Ti': 1, 'O': 3}",40.0,0.0,,,10.1038/natrevmats.2016.94
Fe Se,{},"{'Fe': 1, 'Se': 1}",100.0,0.0,single layer,Nb-doped SrTiO3,10.1038/natrevmats.2016.94