Material,Substitutions,Composition,Tc (K),Pressure (GPa),Shape,Substrate,DOI
In O x,{'x': []},,2.8,0.0,films,,10.1103/physrevb.99.054515
In O,{},"{'In': 1, 'O': 1}",2.0,0.0,films,,10.1134/1.568304
Pr Ru 2 Si 2,{},"{'Pr': 1, 'Ru': 2, 'Si': 2}",14.0,0.0,,,10.1088/0953-8984/12/34/307
Lu 3 Os 4 Ge 13,{},"{'Lu': 3, 'Os': 4, 'Ge': 13}",2.85,0.0,,,
La Mn O 3.04,{},"{'La': 1, 'Mn': 1, 'O': 3.04}",125.0,0.0,,,10.1103/physrevlett.87.127206
La Mn O 3.045,{},"{'La': 1, 'Mn': 1, 'O': 3.045}",130.0,0.0,,,10.1103/physrevlett.87.127206
(Li 1-x Fe x) O H Fe Se,{'x': []},,40.0,0.0,,,10.1007/s11433-016-5782-z
(Li 1-x Fe x) O H Fe Se,{'x': []},,50.0,0.0,crystal,,10.1007/s11433-016-5782-z
Fe 1+x Se,{'x': []},,8.0,0.0,single crystal,,10.1007/s11433-016-5782-z
Fe Se,{},"{'Fe': 1, 'Se': 1}",65.0,0.0,film,,10.1007/s11433-016-5782-z
S C F s,{'s': []},,29.0,0.0,,,10.1103/physrevb.93.024519
(Li 1-x Fe x O H) Fe Se,{'x': []},,40.0,0.0,,,10.1038/s41598-019-40536-3
Sr 2 Ru O 4,{},"{'Sr': 2, 'Ru': 1, 'O': 4}",1.2,0.0,,,10.7566/jpsj.89.034712
Ba Fe 1.9 Ni 0.1 As 2,{},"{'Ba': 1, 'Fe': 1.9, 'Ni': 0.1, 'As': 2}",20.0,0.0,,,10.1103/physrevb.98.014512
La H 10,{},"{'La': 1, 'H': 10}",260.0,170.0,,,10.1021/acs.inorgchem.9b02709
Sc 20 B C 27,{},"{'Sc': 20, 'B': 1, 'C': 27}",7.7,0.0,,,10.1021/acs.inorgchem.9b02709
H 3 S,{},"{'H': 3, 'S': 1}",203.0,170.0,,,10.1021/acs.inorgchem.9b02709
Mg B 2,{},"{'Mg': 1, 'B': 2}",39.0,0.0,,,10.1021/acs.inorgchem.9b02709
Nb 3 Sn,{},"{'Nb': 3, 'Sn': 1}",18.0,0.0,,,10.1103/physrevb.65.224510
V 3 Si,{},"{'V': 3, 'Si': 1}",17.0,0.0,,,10.1103/physrevb.65.224510
Y 0.54 Pr 0.46 Ba 2 Cu 3 O 71-δ4,{'δ': []},,38.0,0.0,,,10.1103/physrevb.73.144510
Fe Se 1-x,{'x': []},,8.0,0.0,,,10.1016/j.jmmm.2012.02.065
Fe Se 1-x,{'x': []},,37.0,9.0,,,10.1016/j.jmmm.2012.02.065
Sr 4 Sc 2 Fe 2 As 2 O 6,{},"{'Sr': 4, 'Sc': 2, 'Fe': 2, 'As': 2, 'O': 6}",37.2,0.0,,,
La Fe As O 1-x F x,{'x': []},,26.0,0.0,,,
La Fe 2 As 2,{},"{'La': 1, 'Fe': 2, 'As': 2}",12.1,0.0,,,10.1103/physrevresearch.1.033025
Cu (N (C N) 2) Br or Cu (S C N) 2,"{'o': [], 'r': []}",,10.0,0.0,,,10.1103/physrevlett.81.4232
Eu Fe 2 As 2,{},"{'Eu': 1, 'Fe': 2, 'As': 2}",32.0,0.0,,,10.1140/epjb/e2013-40483-6
Eu 0.2 Sr 0.8 (Fe 0.86 Co 0.14) 2 As 2,{},"{'Eu': 0.2, 'Sr': 0.8, 'Fe': 1.72, 'Co': 0.28, 'As': 2}",20.0,0.0,single crystal,,10.1140/epjb/e2013-40483-6
Ce Co In 5,{},"{'Ce': 1, 'Co': 1, 'In': 5}",2.3,0.0,,,10.1142/9789814704090_0002
Ce Fe As O 1-x F x,{'x': [0.16]},"{'Ce': 1, 'Fe': 1, 'As': 1, 'O': 0.84, 'F': 0.16}",41.0,0.0,,,10.1142/9789814704090_0002
La O Fe P,{},"{'La': 1, 'O': 1, 'Fe': 1, 'P': 1}",3.2,0.0,,,10.1007/s10948-019-05209-2
Nd Fe As 0.95 Sb 0.05 O 0.8 F 0.2,{},"{'Nd': 1, 'Fe': 1, 'As': 0.95, 'Sb': 0.05, 'O': 0.8, 'F': 0.2}",56.0,0.0,,,10.1007/s10948-019-05209-2
La Fe As O,{},"{'La': 1, 'Fe': 1, 'As': 1, 'O': 1}",26.0,0.0,,,10.1007/s10948-019-05209-2
Nd Fe As O 1-x F x,{'x': []},,55.0,0.0,,,10.1007/s10948-019-05209-2
Nd Fe As O 0.8 F 0.2,{},"{'Nd': 1, 'Fe': 1, 'As': 1, 'O': 0.8, 'F': 0.2}",56.0,0.0,,,10.1007/s10948-019-05209-2
Nd Fe As O 0.8 F 0.2,{},"{'Nd': 1, 'Fe': 1, 'As': 1, 'O': 0.8, 'F': 0.2}",46.0,0.0,,,10.1007/s10948-019-05209-2
Nd Fe As O 1-x F x,{'x': []},,51.9,0.0,,,10.1007/s10948-019-05209-2
Cu x Bi 2 Se 3,{'x': []},,3.8,0.0,,,10.1103/physrevb.86.180505
Ba 0.6 K 0.4 Fe 2 As 2,{},"{'Ba': 0.6, 'K': 0.4, 'Fe': 2, 'As': 2}",36.0,0.0,,,10.1103/physrevb.90.174502
Li Fe As,{},"{'Li': 1, 'Fe': 1, 'As': 1}",55.0,0.0,,,10.1103/physrevb.90.174502
Li Fe As,{},"{'Li': 1, 'Fe': 1, 'As': 1}",15.0,0.0,,,10.1103/physrevb.90.174502
Na Fe As,{},"{'Na': 1, 'Fe': 1, 'As': 1}",54.0,0.0,,,10.1103/physrevb.90.174502
(Ba 0.6 K 0.4) Fe 2 As 2,{},"{'Ba': 0.6, 'K': 0.4, 'Fe': 2, 'As': 2}",36.0,0.0,,,10.1103/physrevb.90.174502
Pr Os 4 Sb 12,{},"{'Pr': 1, 'Os': 4, 'Sb': 12}",1.85,0.0,,,10.1143/jpsj.75.124702
Pr Os 4 Sb 12,{},"{'Pr': 1, 'Os': 4, 'Sb': 12}",0.74,0.0,,,10.1143/jpsj.75.124702
La Os 4 Sb 12,{},"{'La': 1, 'Os': 4, 'Sb': 12}",0.74,0.0,,,10.1143/jpsj.75.124702
Rh 9 In 4 S 4,{},"{'Rh': 9, 'In': 4, 'S': 4}",2.25,0.0,,,10.1103/physrevb.93.094524
Y Ni 2 B 2 C,{},"{'Y': 1, 'Ni': 2, 'B': 2, 'C': 1}",15.4,0.0,single crystals,,10.1016/j.physc.2007.03.164
Y Ni 2 B 2 C,{},"{'Y': 1, 'Ni': 2, 'B': 2, 'C': 1}",15.4,0.0,,,10.1016/j.physc.2007.03.164
Ba Fe 2 As 2,{},"{'Ba': 1, 'Fe': 2, 'As': 2}",28.0,6.0,,,10.1103/physrevb.79.115128
La Fe As O,{},"{'La': 1, 'Fe': 1, 'As': 1, 'O': 1}",55.0,0.0,,,10.1103/physrevb.79.115128
La Fe As O 1-x F x,{'x': [0.11]},"{'La': 1, 'Fe': 1, 'As': 1, 'O': 0.89, 'F': 0.11}",26.0,0.0,,,10.1103/physrevb.83.174503
K x Fe 2 Se 2,{'x': []},,30.0,0.0,,,10.1103/physrevb.83.174503
Rb x Fe 2 Se 2,{'x': []},,30.0,0.0,,,10.1103/physrevb.83.174503
Cs x Fe 2 Se 2,{'x': []},,30.0,0.0,,,10.1103/physrevb.83.174503
Tl x Fe 2 Se 2,{'x': []},,30.0,0.0,,,10.1103/physrevb.83.174503
Sm O 1-x F x Fe As 7,{'x': []},,55.0,0.0,,,10.1103/physrevb.83.174503
Ce 0.75 La 0.25 B 6,{},"{'Ce': 0.75, 'La': 0.25, 'B': 6}",1.7,0.0,,,10.1143/jpsj.72.1859
Mg B 2,{},"{'Mg': 1, 'B': 2}",42.0,0.0,,,10.1088/0953-8984/16/39/r01
Ce Pt 3 Si,{},"{'Ce': 1, 'Pt': 3, 'Si': 1}",0.63,0.0,single crystal,,10.1143/jpsj.76.114708
Ce Pt 3 Si,{},"{'Ce': 1, 'Pt': 3, 'Si': 1}",0.75,0.0,,,10.1143/jpsj.76.114708
Nb N,{},"{'Nb': 1, 'N': 1}",16.0,0.0,films,,10.1103/physrevb.93.180511
Bi 2 Se 3,{},"{'Bi': 2, 'Se': 3}",3.8,0.0,,,10.7566/jpsj.82.063702
Mo 3 Sb 7,{},"{'Mo': 3, 'Sb': 7}",2.35,0.0,,,10.1103/physrevb.87.104515
Mo 3 Sb 7,{},"{'Mo': 3, 'Sb': 7}",2.08,0.0,,,10.1103/physrevb.87.104515
La Fe As O 1-x F x,{'x': []},,26.0,0.0,,,10.1103/physrevlett.108.047001
Ce Fe As O 1-x F x,{'x': []},,55.0,0.0,,,10.1103/physrevlett.108.047001
Pr Fe As O 1-x F x,{'x': []},,55.0,0.0,,,10.1103/physrevlett.108.047001
Nd Fe As O 1-x F x,{'x': []},,55.0,0.0,,,10.1103/physrevlett.108.047001
Sm Fe As O 1-x F x,{'x': []},,55.0,0.0,,,10.1103/physrevlett.108.047001
Ti,{},{'Ti': 1},3.5,0.0,,,
U Ru 2 Si 2,{},"{'U': 1, 'Ru': 2, 'Si': 2}",1.45,0.0,,,10.1103/physrevlett.100.037004
La Fe As O 1-x F x,{'x': []},,26.0,0.0,,,10.1143/jpsjs.80sa.sa121
Cs 3 C 60,{},"{'Cs': 3, 'C': 60}",38.0,7.0,,,10.1038/nphys4288
K 3 C 60,{},"{'K': 3, 'C': 60}",20.0,0.0,,,10.1038/nphys4288
Nd Fe As O 1-x F x,{'x': [0.18]},"{'Nd': 1, 'Fe': 1, 'As': 1, 'O': 0.8200000000000001, 'F': 0.18}",50.0,0.0,,,10.1103/physrevb.92.134509
Nd Fe As O 1-x F x,{'x': []},,34.0,0.0,,,10.1103/physrevb.92.134509
Ba (Fe 0.95 Co 0.05) 2 As 2,{},"{'Ba': 1, 'Fe': 1.9, 'Co': 0.1, 'As': 2}",18.5,0.0,,,10.1103/physrevb.92.134509
K 0.4 Ba 0.6 Fe 2 As 2,{},"{'K': 0.4, 'Ba': 0.6, 'Fe': 2, 'As': 2}",38.0,0.0,,,10.1103/physrevb.92.134509
Nd Fe As O 1-x F x,{'x': []},,32.5,0.0,,,10.1103/physrevb.92.134509
Nd Fe As O 1-x F x,{'x': []},,35.0,0.0,,,10.1103/physrevb.92.134509
Nd Fe As O 0.85,{},"{'Nd': 1, 'Fe': 1, 'As': 1, 'O': 0.85}",51.0,0.0,,,10.1103/physrevb.92.134509
Ce Fe As O 0.84 F 0.16,{},"{'Ce': 1, 'Fe': 1, 'As': 1, 'O': 0.84, 'F': 0.16}",41.0,0.0,,,10.1103/physrevlett.101.217002
La Fe As O,{},"{'La': 1, 'Fe': 1, 'As': 1, 'O': 1}",28.0,0.0,,,10.1103/physrevlett.101.217002
Nb,{},{'Nb': 1},9.1,0.0,Bulk,,10.1109/lmag.2019.2955419
Ta 4 Pd 3 Te 16,{},"{'Ta': 4, 'Pd': 3, 'Te': 16}",4.6,0.0,,,10.1088/1361-648x/aaa3b6
Li 2 Ni 3 B,{},"{'Li': 2, 'Ni': 3, 'B': 1}",1.8,0.0,,,10.1016/j.physc.2007.03.163
Li 2 Ru 3 B,{},"{'Li': 2, 'Ru': 3, 'B': 1}",1.8,0.0,,,10.1016/j.physc.2007.03.163
Li 2 Rh 3 B,{},"{'Li': 2, 'Rh': 3, 'B': 1}",1.8,0.0,,,10.1016/j.physc.2007.03.163
Li 2 Re 3 B,{},"{'Li': 2, 'Re': 3, 'B': 1}",1.8,0.0,,,10.1016/j.physc.2007.03.163
Li 2 Ag 3 B,{},"{'Li': 2, 'Ag': 3, 'B': 1}",1.8,0.0,,,10.1016/j.physc.2007.03.163
Li 2 S 3 B,{},"{'Li': 2, 'S': 3, 'B': 1}",1.8,0.0,,,10.1016/j.physc.2007.03.163
Re 3 B,{},"{'Re': 3, 'B': 1}",4.65,0.0,,,10.1016/j.physc.2007.03.163
Mg C 1-x Ni 3,{'x': [0.04]},"{'Mg': 1, 'C': 0.96, 'Ni': 3}",7.0,0.0,,,10.1103/physrevb.66.172507
La 2-x Sr x Cu O 4,{'x': [0.17]},"{'La': 1.83, 'Sr': 0.17, 'Cu': 1, 'O': 4}",38.0,0.0,,,
Bi 2 Sr 2 Ca Cu 2 O 8,{},"{'Bi': 2, 'Sr': 2, 'Ca': 1, 'Cu': 2, 'O': 8}",100.0,0.0,,,
K Fe 2 Se 2,{},"{'K': 1, 'Fe': 2, 'Se': 2}",40.0,0.0,,,
Ba 0.5 Fe 2 Se 2,{},"{'Ba': 0.5, 'Fe': 2, 'Se': 2}",4.0,0.0,,,
K Fe 2 Se 2,{},"{'K': 1, 'Fe': 2, 'Se': 2}",30.0,0.0,,,
Ce In 3,{},"{'Ce': 1, 'In': 3}",0.15,0.0,,,10.1103/physrevb.65.020504
Mg B 2,{},"{'Mg': 1, 'B': 2}",40.0,0.0,,,10.1088/0953-2048/17/4/007
Mg C 1-x Ni 3,{'x': []},,7.0,0.0,,,10.1088/0953-2048/17/4/007
(Tl K) y Fe 2-x Se 2,"{'x': [], 'y': []}",,30.0,0.0,,,10.1103/physrevlett.107.056401
Y Ba 2 Cu 3 O 6.98,{},"{'Y': 1, 'Ba': 2, 'Cu': 3, 'O': 6.98}",88.0,0.0,,,10.1038/nature12165
Y Ba 2 Cu 3 O 6.6,{},"{'Y': 1, 'Ba': 2, 'Cu': 3, 'O': 6.6}",61.6,0.0,,,10.1038/nature12165
Nb Se 2,{},"{'Nb': 1, 'Se': 2}",7.0,0.0,,,10.1103/physrevb.90.224515
H 3 Se,{},"{'H': 3, 'Se': 1}",112.0,0.0,,,10.1016/j.jpcs.2019.109315
H 3 Br,{},"{'H': 3, 'Br': 1}",98.0,0.0,,,10.1016/j.jpcs.2019.109315
H 3 Br,{},"{'H': 3, 'Br': 1}",100.0,0.0,,,10.1016/j.jpcs.2019.109315
H 3 Br,{},"{'H': 3, 'Br': 1}",150.0,170.0,,,10.1016/j.jpcs.2019.109315
Nb N,{},"{'Nb': 1, 'N': 1}",10.0,0.0,,,
Pr Os 4 Sb 12,{},"{'Pr': 1, 'Os': 4, 'Sb': 12}",1.85,0.0,,,
Ba 1-x (K Na) x Fe 2 As 2,{'x': []},,55.0,0.0,,,10.1103/physrevb.78.212509
Sr 1-x (K Na) x Fe 2 As 2,{'x': []},,55.0,0.0,,,10.1103/physrevb.78.212509
Eu 1-x (K Na) x Fe 2 As 2,{'x': []},,55.0,0.0,,,10.1103/physrevb.78.212509
Ca 1-x (K Na) x Fe 2 As 2,{'x': []},,55.0,0.0,,,10.1103/physrevb.78.212509
La Fe As O 1-x F x,{'x': []},,26.0,0.0,,,10.1103/physrevb.97.060506
Fe Se,{},"{'Fe': 1, 'Se': 1}",10.0,0.0,,,10.1038/srep16385
Fe Se,{},"{'Fe': 1, 'Se': 1}",100.0,0.0,monolayer,,10.1038/srep16385
Rb Fe 2 As 2,{},"{'Rb': 1, 'Fe': 2, 'As': 2}",36.5,0.0,,,
Rb Eu Fe 4 As 4,{},"{'Rb': 1, 'Eu': 1, 'Fe': 4, 'As': 4}",36.5,0.0,,,
Mg B 2,{},"{'Mg': 1, 'B': 2}",39.0,0.0,,,10.1016/s0921-4534(02)01417-x
Dy Mo 6 S 8,{},"{'Dy': 1, 'Mo': 6, 'S': 8}",1.6,0.0,,,10.1002/chin.200313205
Ho Fe As O 1-y,{'y': []},,49.0,0.0,,,10.1209/0295-5075/92/57011
Ho Fe As O 1-y,{'y': []},,49.1,0.0,,,10.1209/0295-5075/92/57011
La Ni P O,{},"{'La': 1, 'Ni': 1, 'P': 1, 'O': 1}",3.0,0.0,,,10.1143/jpsj.78.033706
Ba Ni 2 P 2,{},"{'Ba': 1, 'Ni': 2, 'P': 2}",3.0,1.0,single crystals,,10.1143/jpsj.78.033706
La Fe P O,{},"{'La': 1, 'Fe': 1, 'P': 1, 'O': 1}",4.0,0.0,,,10.1143/jpsj.78.033706
Li Fe As,{},"{'Li': 1, 'Fe': 1, 'As': 1}",18.0,0.0,,,10.1143/jpsj.78.033706
Ba Ni 2 P 2,{},"{'Ba': 1, 'Ni': 2, 'P': 2}",3.0,1.0,,,10.1143/jpsj.78.033706
(Ba 1-x K x) Fe 2 As 2,{'x': []},,38.0,0.0,,,10.1143/jpsj.78.033706
Fe Se,{},"{'Fe': 1, 'Se': 1}",8.0,0.0,,,10.1143/jpsj.78.033706
La Fe As O 1-x F x,{'x': []},,26.0,0.0,,,10.1143/jpsj.78.033706
Eu B 6,{},"{'Eu': 1, 'B': 6}",15.3,0.0,,,10.1103/physrevb.64.174412
Eu B 6,{},"{'Eu': 1, 'B': 6}",15.4,0.0,,,10.1103/physrevb.64.174412
Eu B 6,{},"{'Eu': 1, 'B': 6}",65.0,0.0,,,10.1103/physrevb.64.174412
Eu B 6,{},"{'Eu': 1, 'B': 6}",12.0,0.0,,,10.1103/physrevb.64.174412
Eu B 6,{},"{'Eu': 1, 'B': 6}",12.5,0.0,,,10.1103/physrevb.64.174412
Eu Fe 2 As 2,{},"{'Eu': 1, 'Fe': 2, 'As': 2}",19.6,0.0,crystals,,10.1103/physrevb.95.174522
Eu (Fe 0.91 Ir 0.09) 2 As 2,{},"{'Eu': 1, 'Fe': 1.82, 'Ir': 0.18, 'As': 2}",21.0,0.0,,,10.1103/physrevb.95.174522
Eu (Fe 0.93 Rh 0.07) 2 As 2,{},"{'Eu': 1, 'Fe': 1.86, 'Rh': 0.14, 'As': 2}",19.6,0.0,,,10.1103/physrevb.95.174522
La Fe As O,{},"{'La': 1, 'Fe': 1, 'As': 1, 'O': 1}",26.0,0.0,,,10.1103/physrevb.95.174522
La Fe As O 0.89 F 0.11,{},"{'La': 1, 'Fe': 1, 'As': 1, 'O': 0.89, 'F': 0.11}",28.0,0.0,,,10.1088/0031-8949/88/06/068504
La Fe As O 0.89 F 0.11,{},"{'La': 1, 'Fe': 1, 'As': 1, 'O': 0.89, 'F': 0.11}",28.0,0.0,polycrystalline,,10.1088/0031-8949/88/06/068504
Ba 1-x K x Fe 2 As 2,{'x': []},,32.0,0.0,,,10.1103/physrevb.79.224503
Sr 1-x Sm x Fe As F 9,{'x': []},,56.0,0.0,,,10.1103/physrevb.79.224503
Ba 1-x K Fe 2 As 2,{'x': []},,38.0,0.0,,,10.1103/physrevb.79.224503
Ca 10 (Pt 4-δ As 8) ((Fe 0.97 Pt 0.03) 2 As 2) 5,{'δ': [0.246]},"{'Ca': 10, 'Pt': 4.054, 'As': 18, 'Fe': 9.7}",26.5,0.0,,,10.1103/physrevb.85.100502
Ca 10 (Pt n As 8) (Fe 2 As 2) 5,{'n': []},,38.0,0.0,,,10.1103/physrevb.85.100502
La In 3,{},"{'La': 1, 'In': 3}",0.7,0.0,,,10.1088/0953-8984/23/45/455701
La Sn 3,{},"{'La': 1, 'Sn': 3}",6.4,0.0,,,10.1088/0953-8984/23/45/455701
Mo 8 Ga 41,{},"{'Mo': 8, 'Ga': 41}",10.0,0.0,,,10.1103/physrevb.99.054503
Ce Co In 5,{},"{'Ce': 1, 'Co': 1, 'In': 5}",2.3,0.0,,,10.1103/physrevb.96.060507
Nb Ti N,{},"{'Nb': 1, 'Ti': 1, 'N': 1}",15.0,0.0,,,10.1007/s10909-019-02295-3
Fe Se,{},"{'Fe': 1, 'Se': 1}",58.0,0.0,,,10.1088/1361-6668/aaa501
Mg B 2,{},"{'Mg': 1, 'B': 2}",39.0,0.0,,,10.1038/35066528
Mg B 2,{},"{'Mg': 1, 'B': 2}",38.0,0.0,,,10.1038/35066528
Ba Sn 3,{},"{'Ba': 1, 'Sn': 3}",4.4,0.0,,,10.1088/1367-2630/15/2/023004
La Fe As O,{},"{'La': 1, 'Fe': 1, 'As': 1, 'O': 1}",26.0,0.0,,,10.1103/physrevb.96.104511
Sr Fe As F,{},"{'Sr': 1, 'Fe': 1, 'As': 1, 'F': 1}",56.0,0.0,,,
Li Fe As,{},"{'Li': 1, 'Fe': 1, 'As': 1}",17.5,0.0,,,10.1103/physrevb.101.100507
Pb Ta Se 2,{},"{'Pb': 1, 'Ta': 1, 'Se': 2}",3.8,0.0,,,10.1103/physrevb.101.100507
Lu Ni 2 B 2 C,{},"{'Lu': 1, 'Ni': 2, 'B': 2, 'C': 1}",10.0,0.0,,,10.1016/j.physc.2007.03.166
La Rh Si 3,{},"{'La': 1, 'Rh': 1, 'Si': 3}",2.16,0.0,,,10.1103/physrevb.83.064522
Mg B 2 Sn S,{},"{'Mg': 1, 'B': 2, 'Sn': 1, 'S': 1}",34.5,0.0,,,10.1016/j.ssc.2003.09.024
Mg B 2,{},"{'Mg': 1, 'B': 2}",39.0,0.0,,,10.1016/j.ssc.2003.09.024
Ba Bi O 3,{},"{'Ba': 1, 'Bi': 1, 'O': 3}",30.0,0.0,,,10.1103/physrevlett.117.037002
Ba 1-x K x Bi O 3,{'x': []},,32.0,0.0,,,10.1103/physrevlett.117.037002
Ca 10 (Pt 3 As 8) (Fe 2 As 2) 5,{},"{'Ca': 10, 'Pt': 3, 'As': 18, 'Fe': 10}",8.0,0.0,,,10.1103/physrevb.85.094510
Nb,{},{'Nb': 1},5.9,0.0,,,10.1103/physrevlett.95.147003
Nb,{},{'Nb': 1},9.2,0.0,films,,10.1103/physrevlett.95.147003
Mo 3 Al 2 C,{},"{'Mo': 3, 'Al': 2, 'C': 1}",9.2,0.0,polycrystalline,,10.1103/physrevb.82.064512
Mo 3 Al 2 C,{},"{'Mo': 3, 'Al': 2, 'C': 1}",10.0,0.0,,,10.1103/physrevb.82.064512
Mo 3 Al 2 C,{},"{'Mo': 3, 'Al': 2, 'C': 1}",9.2,0.0,,,10.1103/physrevb.82.064512
Y 0.78 Ca 0.22 Ba 2 Cu 3 O 6.5,{},"{'Y': 0.78, 'Ca': 0.22, 'Ba': 2, 'Cu': 3, 'O': 6.5}",59.0,0.0,,,
Y 1-z Ca z Ba 2 Cu 3 O 6.0,{'z': []},,30.0,0.0,,,
Y Ba 2 Cu 3 O 6.67,{},"{'Y': 1, 'Ba': 2, 'Cu': 3, 'O': 6.67}",67.0,0.0,,,10.1038/ncomms11494
U Te 2,{},"{'U': 1, 'Te': 2}",1.6,0.0,,,
Ce Co Ge 3,{},"{'Ce': 1, 'Co': 1, 'Ge': 3}",0.7,5.4,,,10.1103/physrevb.97.184422
Ce Rh Si 3,{},"{'Ce': 1, 'Rh': 1, 'Si': 3}",1.0,0.0,,,10.1103/physrevb.97.184422
Ce Ir Si 3,{},"{'Ce': 1, 'Ir': 1, 'Si': 3}",1.6,2.5,,,10.1103/physrevb.97.184422
Ce Ir Ge 3,{},"{'Ce': 1, 'Ir': 1, 'Ge': 3}",1.5,20.0,,,10.1103/physrevb.97.184422
La 2-x Sr x Cu O 4,{'x': []},,40.0,0.0,,,10.1088/0256-307x/26/1/017305
Y Ba 2 Cu 3 O 7,{},"{'Y': 1, 'Ba': 2, 'Cu': 3, 'O': 7}",90.0,0.0,,,10.1088/0256-307x/26/1/017305
Y Fe 2 Ge 2,{},"{'Y': 1, 'Fe': 2, 'Ge': 2}",1.8,0.0,,,10.1103/physrevlett.116.127001
Bi 2 Sr 2 Ca Cu 2 O 8,{},"{'Bi': 2, 'Sr': 2, 'Ca': 1, 'Cu': 2, 'O': 8}",91.0,0.0,,,10.1088/1674-1056/28/7/077403
Bi 2 Sr 2 Ca Cu 2 O 8,{},"{'Bi': 2, 'Sr': 2, 'Ca': 1, 'Cu': 2, 'O': 8}",81.0,0.0,,,10.1088/1674-1056/28/7/077403
Y Ba 2 Cu 3 O 7-δ,{'δ': []},,92.0,0.0,crystal,,10.1063/1.1515098
H 3 S,{},"{'H': 3, 'S': 1}",203.0,150.0,,,
Rb 0.75 Fe 1.63 Se 2,{},"{'Rb': 0.75, 'Fe': 1.63, 'Se': 2}",30.0,0.0,single crys- tal,,10.1103/physrevb.84.094504
Rb 0.75 Fe 1.63 Se 2,{},"{'Rb': 0.75, 'Fe': 1.63, 'Se': 2}",30.0,0.0,,,10.1103/physrevb.84.094504
K y Fe 1.6+x Se 2,"{'x': [], 'y': []}",,30.0,0.0,,,10.1103/physrevb.84.094504
Rb y Fe 1.6+x Se 2,"{'x': [], 'y': []}",,30.0,0.0,,,10.1103/physrevb.84.094504
Cs y Fe 1.6+x Se 2,"{'x': [], 'y': []}",,30.0,0.0,,,10.1103/physrevb.84.094504
Tl y Fe 1.6+x Se 2,"{'x': [], 'y': []}",,30.0,0.0,,,10.1103/physrevb.84.094504
La Co 2 P 2,{},"{'La': 1, 'Co': 2, 'P': 2}",4.0,0.0,,,10.1103/physrevb.86.014503
La Co 1.73 Fe 0.27 B 2,{},"{'La': 1, 'Co': 1.73, 'Fe': 0.27, 'B': 2}",4.1,0.0,single crystals,,10.1103/physrevb.86.014503
Ti,{},{'Ti': 1},110.0,0.0,film,,10.1088/1361-6668/aa63bc
Ca Fe 2 As 2,{},"{'Ca': 1, 'Fe': 2, 'As': 2}",42.7,0.0,single crystals,,10.1209/0295-5075/95/67002
La Fe As O 1-x F x,{'x': []},,26.0,0.0,,,10.1209/0295-5075/95/67002
Ca Fe 2 As 2,{},"{'Ca': 1, 'Fe': 2, 'As': 2}",42.7,0.0,,,10.1209/0295-5075/95/67002
Ca 0.8 La 0.2 Fe 2 As 2,{},"{'Ca': 0.8, 'La': 0.2, 'Fe': 2, 'As': 2}",42.7,0.0,,,10.1209/0295-5075/95/67002
Ca 0.8 La 0.2 Fe 2 As 2,{},"{'Ca': 0.8, 'La': 0.2, 'Fe': 2, 'As': 2}",42.7,0.0,single crystals,,10.1209/0295-5075/95/67002
Pd H,{},"{'Pd': 1, 'H': 1}",1.0,0.0,,,10.1103/physrevb.100.024422
Y Ba 2 Cu 3 O 7,{},"{'Y': 1, 'Ba': 2, 'Cu': 3, 'O': 7}",85.0,0.0,,,10.1103/physreva.99.023405
Pb,{},{'Pb': 1},7.2,0.0,,,10.1007/978-3-540-73253-2_21
Bi 2 Sr 2 Ca Cu 2 O 8+δ,{'δ': []},,83.0,0.0,,,10.1007/978-3-540-73253-2_21
Y Ba 2 Cu 3 O 7-δ,{'δ': []},,63.0,0.0,,,10.1007/978-3-540-73253-2_21
Nd 0.8 Sr 0.2 Ni O 2,{},"{'Nd': 0.8, 'Sr': 0.2, 'Ni': 1, 'O': 2}",15.0,0.0,thin film 7,,10.1103/physrevresearch.2.013214
Ru B 2,{},"{'Ru': 1, 'B': 2}",1.5,0.0,,,10.1103/physrevb.97.054506
Os B 2,{},"{'Os': 1, 'B': 2}",1.5,0.0,,,10.1103/physrevb.97.054506
Mg B 2,{},"{'Mg': 1, 'B': 2}",39.0,0.0,,,
La O 0.5 F 0.5 Bi S 2,{},"{'La': 1, 'O': 0.5, 'F': 0.5, 'Bi': 1, 'S': 2}",11.0,0.0,,,10.1007/s10948-014-2686-x
La O 1-x F x Bi S Se,{'x': [0.5]},"{'La': 1, 'O': 0.5, 'F': 0.5, 'Bi': 1, 'S': 1, 'Se': 1}",3.8,0.0,,,10.1007/s10948-014-2686-x
Nd 0.2 Sm 0.8 O 0.7 F 0.3 Bi S 2,{},"{'Nd': 0.2, 'Sm': 0.8, 'O': 0.7, 'F': 0.3, 'Bi': 1, 'S': 2}",5.6,0.0,,,10.1007/s10948-014-2686-x
Ce 1-x Nd x (O F) Bi S 2,{'x': []},,5.6,0.0,,,10.1007/s10948-014-2686-x
La 1-x Sm x O 0.5 F 0.5 Bi S 2,{'x': []},,5.4,0.0,,,10.1007/s10948-014-2686-x
La 0.2 Sm 0.8 O 0.5 F 0.5 Bi S 2,{},"{'La': 0.2, 'Sm': 0.8, 'O': 0.5, 'F': 0.5, 'Bi': 1, 'S': 2}",5.4,0.0,,,10.1007/s10948-014-2686-x
La O 0.5 F 0.5 Bi S 2,{},"{'La': 1, 'O': 0.5, 'F': 0.5, 'Bi': 1, 'S': 2}",2.5,0.0,,,10.1007/s10948-014-2686-x
Ho Ni 2 B 2 C,{},"{'Ho': 1, 'Ni': 2, 'B': 2, 'C': 1}",8.0,0.0,,,10.1103/physrevb.57.10684
La Fe As O 1-x F x,{'x': []},,28.0,0.0,,,10.1038/ncomms1407
Fe Se Te,{},"{'Fe': 1, 'Se': 1, 'Te': 1}",14.5,0.0,,,
Cu O 2,{},"{'Cu': 1, 'O': 2}",91.0,0.0,,,
Fe Se,{},"{'Fe': 1, 'Se': 1}",100.0,0.0,,,
Sr F Fe As,{},"{'Sr': 1, 'F': 1, 'Fe': 1, 'As': 1}",56.0,0.0,,,
Fe Se,{},"{'Fe': 1, 'Se': 1}",8.0,0.0,,,
K C 60,{},"{'K': 1, 'C': 60}",65.0,0.0,,,10.1081/fst-120027164
Y Ba 2 Cu 3 O 6.95,{},"{'Y': 1, 'Ba': 2, 'Cu': 3, 'O': 6.95}",92.74,0.0,,,10.1088/0953-8984/15/13/306
Bi 2 Sr 2 Ca Cu 2 O 8,{},"{'Bi': 2, 'Sr': 2, 'Ca': 1, 'Cu': 2, 'O': 8}",80.0,0.0,,,10.1103/physrevb.69.024521
Y 1-b (Ca) b Ba 2 Cu 3 O 6+x,"{'x': [], 'b': [0.2]}",,60.0,0.0,,,10.1088/1674-1056/21/11/117401
Fe Se,{},"{'Fe': 1, 'Se': 1}",65.0,0.0,Films,,10.1038/nmat3648
Fe Se,{},"{'Fe': 1, 'Se': 1}",65.0,0.0,,,10.1038/nmat3648
Fe Se,{},"{'Fe': 1, 'Se': 1}",8.0,0.0,film,,10.1038/nmat3648
Tl Ba 2 Ca 2 Cu 3 O 9-δ,{'δ': []},,125.0,0.0,,,10.1016/j.physc.2015.09.006
Bi 2 Sr 2 Ca Cu 2 O 8,{},"{'Bi': 2, 'Sr': 2, 'Ca': 1, 'Cu': 2, 'O': 8}",90.0,0.0,single crystal,,10.1016/j.physc.2008.05.251
Cu 0.6 Ta 2 S 2 C,{},"{'Cu': 0.6, 'Ta': 2, 'S': 2, 'C': 1}",4.9,0.0,,,10.1103/physrevb.71.224407
Ta 2 S 2 C,{},"{'Ta': 2, 'S': 2, 'C': 1}",3.61,0.0,,,10.1103/physrevb.71.224407
Cu 0.6 Ta 2 S 2 C,{},"{'Cu': 0.6, 'Ta': 2, 'S': 2, 'C': 1}",4.8,0.0,,,10.1103/physrevb.71.224407
Ni 0.25 Ta 2 S 2 C,{},"{'Ni': 0.25, 'Ta': 2, 'S': 2, 'C': 1}",8.7,0.0,,,10.1103/physrevb.71.224407
Ta 2 S 2 C,{},"{'Ta': 2, 'S': 2, 'C': 1}",4.6,0.0,,,10.1103/physrevb.71.224407
Ni 0.33 Ta 2 S 2 C,{},"{'Ni': 0.33, 'Ta': 2, 'S': 2, 'C': 1}",3.82,0.0,,,10.1103/physrevb.71.224407
Fe c Ta 2 S 2 C,{'c': []},,4.6,0.0,,,10.1103/physrevb.71.224407
Co c Ta 2 S 2 C,{'c': []},,4.6,0.0,,,10.1103/physrevb.71.224407
Ni c Ta 2 S 2 C,{'c': []},,4.6,0.0,,,10.1103/physrevb.71.224407
Cu c Ta 2 S 2 C,{'c': []},,4.6,0.0,,,10.1103/physrevb.71.224407
Ni 0.25 Ta 2 S 2 C,{},"{'Ni': 0.25, 'Ta': 2, 'S': 2, 'C': 1}",3.0,0.0,,,10.1103/physrevb.71.224407
Cu 0.6 Ta 2 S 2 C,{},"{'Cu': 0.6, 'Ta': 2, 'S': 2, 'C': 1}",4.6,0.0,,,10.1103/physrevb.71.224407