Material,Substitutions,Composition,Tc (K),Pressure (GPa),Shape,Substrate,DOI
Gd Fe As O 1-x F x,{'x': []},,55.0,0.0,,,10.1063/1.4872866
Ce Fe As O 1-x F x,{'x': []},,42.7,0.0,,,10.1063/1.4872866
Eu Fe 2 P 2,{},"{'Eu': 1, 'Fe': 2, 'P': 2}",29.0,0.0,,,10.1088/0953-8984/26/4/045601
Ce Pd 2 P 2,{},"{'Ce': 1, 'Pd': 2, 'P': 2}",28.0,0.0,,,10.1088/0953-8984/26/4/045601
Ca 2-x Na x Cu O 2 Cl 2,{'x': [0.14]},"{'Ca': 1.8599999999999999, 'Na': 0.14, 'Cu': 1, 'O': 2, 'Cl': 2}",28.0,0.0,,,10.1126/science.1166138
Ba (Fe 0.96 Ni 0.04) 2 As 2,{},"{'Ba': 1, 'Fe': 1.92, 'Ni': 0.08, 'As': 2}",17.0,0.0,,,10.1103/physrevb.91.024504
La 2-x Ba x Cu O 4,{'x': []},,1.5,0.0,,,10.1002/pssb.200490005
Mg B 2,{},"{'Mg': 1, 'B': 2}",39.0,0.0,,,10.1088/0953-2048/17/5/001
Zr 70 Cu 30,{},"{'Zr': 70, 'Cu': 30}",2.7,0.0,,,10.1088/1361-648x/ab3515
Nb C,{},"{'Nb': 1, 'C': 1}",10.0,0.0,,,10.1088/1361-648x/ab3515
La Fe P O,{},"{'La': 1, 'Fe': 1, 'P': 1, 'O': 1}",26.0,0.0,,,10.1088/1367-2630/11/2/025010
La Fe P O,{},"{'La': 1, 'Fe': 1, 'P': 1, 'O': 1}",4.0,0.0,,,10.1088/1367-2630/11/2/025010
Li Fe As,{},"{'Li': 1, 'Fe': 1, 'As': 1}",16.0,0.0,,,10.1088/1367-2630/11/2/025010
La Fe As O 0.9 F 0.1,{},"{'La': 1, 'Fe': 1, 'As': 1, 'O': 0.9, 'F': 0.1}",22.0,0.0,,,10.1088/1367-2630/11/2/025010
Sm Fe As O 1-x F x,{'x': []},,43.0,0.0,,,10.1088/1367-2630/11/2/025010
La Fe As O 1-x F x,{'x': []},,26.0,0.0,,,10.1088/1367-2630/11/2/025010
Li Fe As,{},"{'Li': 1, 'Fe': 1, 'As': 1}",12.0,0.0,,,10.1088/1367-2630/11/2/025010
Na Fe As,{},"{'Na': 1, 'Fe': 1, 'As': 1}",9.0,0.0,,,10.1088/1367-2630/11/2/025010
Fe Se,{},"{'Fe': 1, 'Se': 1}",65.0,0.0,film,SrTiO 3,10.1103/physrevb.92.064515
(Li 0.84 Fe 0.16) O H Fe 0.98 Se,{},"{'Li': 0.84, 'Fe': 1.14, 'O': 1, 'H': 1, 'Se': 1}",42.0,0.0,,,10.1103/physrevb.92.064515
Mg B 2,{},"{'Mg': 1, 'B': 2}",35.0,0.0,,,10.1143/jjap.41.l685
Nb 3 Ge,{},"{'Nb': 3, 'Ge': 1}",23.0,0.0,,,10.1143/jjap.41.l685
K Fe 2 Se 2,{},"{'K': 1, 'Fe': 2, 'Se': 2}",18.0,0.0,single crystals,,10.1063/1.4971437
Mg B 2,{},"{'Mg': 1, 'B': 2}",40.0,0.0,,,10.1063/1.4971437
Gd O 1-x F x Fe As,{'x': []},,50.0,0.0,,,10.1063/1.4971437
Th N Fe As,{},"{'Th': 1, 'N': 1, 'Fe': 1, 'As': 1}",30.0,0.0,,,10.1063/1.4971437
La O 1-x F x Fe As,{'x': []},,21.0,0.0,,,10.1063/1.4971437
Sm 1-x Th x O Fe As,{'x': []},,52.0,0.0,polycrystalline,,10.1063/1.4971437
K Fe 2 Se 2,{},"{'K': 1, 'Fe': 2, 'Se': 2}",18.0,0.0,single crystal,,10.1063/1.4971437
Sm 1-x Th x O Fe As,{'x': []},,50.0,0.0,,,10.1063/1.4971437
Mg B 2,{},"{'Mg': 1, 'B': 2}",35.0,0.0,,,10.1063/1.4971437
Sm 0.7 Th 0.3 O Fe As,{},"{'Sm': 0.7, 'Th': 0.3, 'O': 1, 'Fe': 1, 'As': 1}",52.0,0.0,,,10.1063/1.4971437
Mg B 2,{},"{'Mg': 1, 'B': 2}",35.0,0.0,polycrystalline,,10.1063/1.4971437
Ce Co In 5,{},"{'Ce': 1, 'Co': 1, 'In': 5}",2.3,0.0,,,10.1088/0256-307x/28/5/057401
Ce Rh In 5,{},"{'Ce': 1, 'Rh': 1, 'In': 5}",0.4,0.0,,,10.1088/0256-307x/28/5/057401
Pu Co Ga 5,{},"{'Pu': 1, 'Co': 1, 'Ga': 5}",18.0,0.0,,,10.1088/0256-307x/28/5/057401
Ce Ir In 5,{},"{'Ce': 1, 'Ir': 1, 'In': 5}",2.3,0.0,,,10.1088/0256-307x/28/5/057401
Mg B 2,{},"{'Mg': 1, 'B': 2}",39.0,0.0,,,10.1016/j.physc.2005.01.001
Sm Fe As O 0.9 F 0.1,{},"{'Sm': 1, 'Fe': 1, 'As': 1, 'O': 0.9, 'F': 0.1}",54.0,0.0,,,10.1038/s41598-017-11371-1
Sm Fe As O 0.85,{},"{'Sm': 1, 'Fe': 1, 'As': 1, 'O': 0.85}",50.0,0.0,,,10.1038/s41598-017-11371-1
Cu x Bi 2 Se 3,{'x': []},,3.2,0.0,,,10.1103/physrevb.97.014510
La 2-x Sr x Cu O 4,{'x': []},,30.0,0.0,,,10.1016/s0375-9601(02)00684-9
Ba (Fe 0.955 Co 0.045) 2 As 2,{},"{'Ba': 1, 'Fe': 1.91, 'Co': 0.09, 'As': 2}",8.0,0.0,,,10.1103/physrevb.86.014513
U Pt 3,{},"{'U': 1, 'Pt': 3}",0.55,0.0,,,10.1209/epl/i2003-00409-9
Y 1-x Pr x Ba 2 Cu 3 O 7-δ,"{'δ': [], 'x': [0.3]}",,10.0,0.0,,,10.1088/0953-8984/15/2/103
Ba Fe 2 (As 1-x P x) 2,{'x': []},,30.0,0.0,,,10.1103/physrevlett.108.257004
Ba (Fe 1-x Co x) 2 As 2,{'x': []},,25.0,0.0,,,10.1103/physrevlett.108.257004
Bi,{},{'Bi': 1},0.53,0.0,,,10.1126/science.aaf8227
Bi 2 Sr 2 Ca Cu 2 O 8+δ,{'δ': []},,82.0,0.0,Single crystal,,10.1038/s41563-018-0045-1
Bi 2 Sr 2 Ca Cu 2 O 8+δ,{'δ': []},,82.0,0.0,,,10.1038/s41563-018-0045-1
Nb 21 Re 16 Zr 20 Hf 23 Ti 20,{},"{'Nb': 21, 'Re': 16, 'Zr': 20, 'Hf': 23, 'Ti': 20}",5.3,0.0,,,10.1016/j.jallcom.2018.08.039
Nb 20 Re 20 Zr 20 Hf 20 Ti 20,{},"{'Nb': 20, 'Re': 20, 'Zr': 20, 'Hf': 20, 'Ti': 20}",5.3,0.0,,,10.1016/j.jallcom.2018.08.039
Fe Se,{},"{'Fe': 1, 'Se': 1}",8.0,0.0,,,10.1143/jpsj.79.084711
La Fe As O 1-x F x,{'x': []},,26.0,0.0,,,10.1143/jpsj.79.084711
Fe Se,{},"{'Fe': 1, 'Se': 1}",37.0,7.0,,,10.1143/jpsj.79.084711
Rb Os 2 O 6,{},"{'Rb': 1, 'Os': 2, 'O': 6}",3.3,0.0,,,10.1088/0953-2048/17/10/015
Cs Os 2 O 6,{},"{'Cs': 1, 'Os': 2, 'O': 6}",6.3,0.0,,,10.1088/0953-2048/17/10/015
K Os 2 O 6,{},"{'K': 1, 'Os': 2, 'O': 6}",9.5,0.0,,,10.1088/0953-2048/17/10/015
Cd 2 Re 2 O 7,{},"{'Cd': 2, 'Re': 2, 'O': 7}",1.0,0.0,,,10.1088/0953-2048/17/10/015
Mg B 2,{},"{'Mg': 1, 'B': 2}",39.0,0.0,,,10.1088/0953-2048/23/4/045031
Mg B 2,{},"{'Mg': 1, 'B': 2}",20.0,0.0,,,10.1088/0953-2048/23/4/045031
Y Ba 2 Cu 3 O 7-δ,{'δ': []},,87.0,0.0,,,10.5488/cmp.17.13703
K Fe 2 As 2,{},"{'K': 1, 'Fe': 2, 'As': 2}",3.0,0.0,,,10.1146/annurev-conmatphys-020911-125055
In O,{},"{'In': 1, 'O': 1}",2.0,0.0,films,,10.1070/pu1998v041n02abeh000368
Re Fe As O 1-x F x,{'x': []},,55.0,0.0,,,10.1103/physrevb.86.184509
Ba (Fe 0.92 Co 0.08) 2 As 2,{},"{'Ba': 1, 'Fe': 1.84, 'Co': 0.16, 'As': 2}",23.0,0.0,,,10.1103/physrevb.91.104510
Ba 0.6 K 0.4 Fe 2 As 2,{},"{'Ba': 0.6, 'K': 0.4, 'Fe': 2, 'As': 2}",39.0,0.0,,,10.1103/physrevb.91.104510
La 2 Cu O 4+y,{'y': []},,34.0,0.0,,,10.1103/physrevb.66.014528
La 2 Cu O 4,{},"{'La': 2, 'Cu': 1, 'O': 4}",42.0,0.0,,,10.1103/physrevb.66.014528
La 2 Cu O 4+y,{'y': []},,42.0,0.0,,,10.1103/physrevb.66.014528
Ba Fe 2 As 2,{},"{'Ba': 1, 'Fe': 2, 'As': 2}",30.0,0.0,,,10.1088/0953-8984/21/1/012208
Ba Fe 2 As 2,{},"{'Ba': 1, 'Fe': 2, 'As': 2}",27.0,0.0,,,10.1088/0953-8984/21/1/012208
Sr Fe 2 As 2,{},"{'Sr': 1, 'Fe': 2, 'As': 2}",27.0,0.0,,,10.1088/0953-8984/21/1/012208
Sr Fe 2 As 2,{},"{'Sr': 1, 'Fe': 2, 'As': 2}",30.0,0.0,,,10.1088/0953-8984/21/1/012208
Ce Pt 3 Si,{},"{'Ce': 1, 'Pt': 3, 'Si': 1}",0.46,0.0,,,10.1088/0953-8984/23/45/455704
Ce Co In 5,{},"{'Ce': 1, 'Co': 1, 'In': 5}",2.3,0.0,,,10.1088/0953-8984/23/45/455704
Ag In 5 Se 8,{},"{'Ag': 1, 'In': 5, 'Se': 8}",3.4,52.5,,,10.1080/14686996.2018.1548885
Mg B 2,{},"{'Mg': 1, 'B': 2}",38.0,0.0,single crystals,,10.1088/0953-2048/16/2/317
Mg B 2,{},"{'Mg': 1, 'B': 2}",39.0,0.0,,,10.1088/0953-2048/16/2/317
La Fe As O 1-x F x,{'x': []},,28.0,0.0,,,10.1103/physrevb.86.144407
La Fe As O 0.9 F 0.1,{},"{'La': 1, 'Fe': 1, 'As': 1, 'O': 0.9, 'F': 0.1}",26.0,0.0,,,10.1103/physrevb.86.144407
Fe Se 0.5 Te 0.5,{},"{'Fe': 1, 'Se': 0.5, 'Te': 0.5}",37.0,0.0,,,
Tl 2 Ba 2 Cu 6+δ,{'δ': []},,90.0,0.0,,,10.1126/science.1067877
Tl 2 Ba 2 Cu O 6+δ,{'δ': []},,90.0,0.0,,,10.1126/science.1067877
La 2-x Sr x Cu O 4+δ,"{'δ': [], 'x': []}",,40.0,0.0,,,10.1126/science.1067877
Sr 2 Ru O 4,{},"{'Sr': 2, 'Ru': 1, 'O': 4}",1.5,0.0,,,10.1143/jpsj.72.1623
Bi 2 Se 3,{},"{'Bi': 2, 'Se': 3}",4.0,0.0,,,10.1103/physrevb.87.104505
Ta Se 3,{},"{'Ta': 1, 'Se': 3}",2.2,0.0,,,
Hf S 3,{},"{'Hf': 1, 'S': 3}",8.1,0.0,,,
La Fe As O 1-x F x,{'x': []},,26.0,0.0,,,10.1103/physrevb.78.092504
Sm Fe As O 0.9 F 0.1,{},"{'Sm': 1, 'Fe': 1, 'As': 1, 'O': 0.9, 'F': 0.1}",55.0,0.0,,,10.1103/physrevb.78.092504
H 2 S,{},"{'H': 2, 'S': 1}",190.0,170.0,,,10.1103/physrevb.91.060511
Mg B 2,{},"{'Mg': 1, 'B': 2}",39.0,0.0,,,10.1103/physrevb.91.060511
Eu 6 C 60,{},"{'Eu': 6, 'C': 60}",12.0,0.0,,,10.1103/physrevb.65.134431
Eu 6 C 60,{},"{'Eu': 6, 'C': 60}",1.0,0.0,,,10.1103/physrevb.65.134431
Eu 6 C 60,{},"{'Eu': 6, 'C': 60}",2.0,0.0,,,10.1103/physrevb.65.134431
Eu 6 C 60,{},"{'Eu': 6, 'C': 60}",13.7,0.0,,,10.1103/physrevb.65.134431
Y Ni 2 B 2 C,{},"{'Y': 1, 'Ni': 2, 'B': 2, 'C': 1}",15.5,0.0,,,10.1103/physrevb.76.214514
Ba (Fe 1-x Co x) 2 As 2,{'x': []},,18.25,0.0,single crystal,,10.1103/physrevb.81.184514
Mg B 2,{},"{'Mg': 1, 'B': 2}",39.0,0.0,,,10.1016/s0038-1098(02)00877-3
Mg B 2,{},"{'Mg': 1, 'B': 2}",39.0,0.0,polycrystalline,,10.1016/s0038-1098(02)00877-3
Sr 2 Ru O 4,{},"{'Sr': 2, 'Ru': 1, 'O': 4}",1.5,0.0,,,10.1103/physrevb.70.104505
Pr Os 4 Sb 12,{},"{'Pr': 1, 'Os': 4, 'Sb': 12}",1.85,0.0,,,10.1103/physrevb.66.220504
Ba Fe 1.8 Co 0.2 As 2,{},"{'Ba': 1, 'Fe': 1.8, 'Co': 0.2, 'As': 2}",22.0,0.0,,,10.1103/physrevb.79.220503
Fe S C,{},"{'Fe': 1, 'S': 1, 'C': 1}",55.0,0.0,,,10.1103/physrevb.79.220503
Nb N,{},"{'Nb': 1, 'N': 1}",7.2,0.0,thin films,,10.1088/1361-6668/ab6179
Ba 1-x K x Fe 2 As 2,{'x': []},,38.0,0.0,,,10.1103/physrevlett.102.107002
Bi 2 Sr 2 Ca Cu 2 O 8+δ,{'δ': []},,91.0,0.0,single crystals,,10.1088/1674-1137/37/8/088003
Mg B 2,{},"{'Mg': 1, 'B': 2}",67.0,0.0,,,10.1103/physrevlett.123.077001
H Mg B 2,{},"{'H': 1, 'Mg': 1, 'B': 2}",100.0,0.0,,,10.1103/physrevlett.123.077001
H 3 S,{},"{'H': 3, 'S': 1}",203.0,170.0,,,10.1103/physrevlett.123.077001
Fe Se,{},"{'Fe': 1, 'Se': 1}",100.0,0.0,,,10.1103/physrevlett.123.077001
Pr Ba 2 Cu 3 O 7,{},"{'Pr': 1, 'Ba': 2, 'Cu': 3, 'O': 7}",85.0,0.0,,,
Pr 0.5 Ca 0.5 Ba 2 Cu 3 O 7-y,{'y': []},,43.0,0.0,thin films,,
Rb 2 Fe 4 Se 5,{},"{'Rb': 2, 'Fe': 4, 'Se': 5}",32.0,0.0,single-crystalline,,10.1103/physrevlett.107.177005
Nb Ti N,{},"{'Nb': 1, 'Ti': 1, 'N': 1}",15.0,0.0,thin films,,10.1109/tasc.2016.2631939
Nb Ti N,{},"{'Nb': 1, 'Ti': 1, 'N': 1}",15.7,0.0,thin films,,10.1109/tasc.2016.2631939
Nb Ti N,{},"{'Nb': 1, 'Ti': 1, 'N': 1}",15.0,0.0,,,10.1109/tasc.2016.2631939
Mn P,{},"{'Mn': 1, 'P': 1}",1.0,7.8,,,10.1103/physrevb.93.100405
Na Fe 0.94 Co 0.06 As,{},"{'Na': 1, 'Fe': 0.94, 'Co': 0.06, 'As': 1}",20.2,0.0,,,10.1016/j.cossms.2013.06.001
Na 1-x Fe As,{'x': []},,25.0,0.0,,,10.1016/j.cossms.2013.06.001
Na Fe 2 As 2,{},"{'Na': 1, 'Fe': 2, 'As': 2}",12.0,0.0,,,10.1016/j.cossms.2013.06.001
Na Fe 0.98 Co 0.02 As,{},"{'Na': 1, 'Fe': 0.98, 'Co': 0.02, 'As': 1}",22.5,0.0,,,10.1016/j.cossms.2013.06.001
Pu Fe As O,{},"{'Pu': 1, 'Fe': 1, 'As': 1, 'O': 1}",50.0,0.0,,,10.1103/physrevb.86.174510
La 2-x Ba x Cu O 4,{'x': [0.115]},"{'La': 1.885, 'Ba': 0.115, 'Cu': 1, 'O': 4}",13.0,0.0,,,10.1103/revmodphys.87.457
La 2 Cu O 4+δ,{'δ': []},,40.0,0.0,,,10.1103/revmodphys.87.457
K Fe 2 As 2,{},"{'K': 1, 'Fe': 2, 'As': 2}",4.0,0.0,,,10.1088/0953-2048/25/8/084013
Tl 2 Ba 2 Cu O 6+δ,{'δ': []},,13.0,0.0,,,10.1088/0953-2048/25/8/084013
K Fe 2 As 2,{},"{'K': 1, 'Fe': 2, 'As': 2}",7.5,0.0,,,10.1088/0953-2048/25/8/084013
Y Ba 2 Cu 3 O 7,{},"{'Y': 1, 'Ba': 2, 'Cu': 3, 'O': 7}",89.0,0.0,,,10.1088/0953-2048/25/8/084013
Tl 2 Ba 2 Cu O 6+δ,{'δ': []},,84.0,0.0,,,10.1088/0953-2048/25/8/084013
Al 0.98 Mn 0.02,{},"{'Al': 0.98, 'Mn': 0.02}",1.5,0.0,,,10.1038/nnano.2015.11
Fe Co,{},"{'Fe': 1, 'Co': 1}",5.0,0.0,,,10.1103/physrevb.81.094509
Fe Ni,{},"{'Fe': 1, 'Ni': 1}",18.0,0.0,,,10.1103/physrevb.81.094509
Fe Co,{},"{'Fe': 1, 'Co': 1}",23.0,0.0,,,10.1103/physrevb.81.094509
In 0.58 Ta Se 2,{},"{'In': 0.58, 'Ta': 1, 'Se': 2}",0.91,0.0,,,10.1016/0378-4363(85)90537-6
Bi 2 Sr 2 Ca Cu 2 O 8,{},"{'Bi': 2, 'Sr': 2, 'Ca': 1, 'Cu': 2, 'O': 8}",91.0,0.0,,,10.1088/0034-4885/72/12/122501
Sm Fe As O 1-y,{'y': []},,50.0,0.0,,,10.1103/physrevlett.105.037004
Sm Fe As O 0.85 F 0.15,{},"{'Sm': 1, 'Fe': 1, 'As': 1, 'O': 0.85, 'F': 0.15}",41.0,0.0,,,10.1103/physrevlett.105.037004
(Ba K) Fe 2 As 2,{},"{'Ba': 1, 'K': 1, 'Fe': 2, 'As': 2}",54.0,0.0,,,10.1103/physrevlett.105.037004
Sm Fe As O 1-y,{'y': []},,54.0,0.0,,,10.1103/physrevlett.105.037004
(Ba K) Fe 2 As 2,{},"{'Ba': 1, 'K': 1, 'Fe': 2, 'As': 2}",38.0,0.0,,,10.1103/physrevlett.105.037004
Fe Se,{},"{'Fe': 1, 'Se': 1}",8.0,0.0,,,10.1103/physrevb.93.134513
Fe Se,{},"{'Fe': 1, 'Se': 1}",40.0,0.0,thin films,,10.1103/physrevb.93.134513
Fe Se,{},"{'Fe': 1, 'Se': 1}",70.0,0.0,crystal,,10.1103/physrevb.93.134513
Fe Se,{},"{'Fe': 1, 'Se': 1}",9.4,0.0,,,10.1103/physrevlett.115.017002
Fe Se,{},"{'Fe': 1, 'Se': 1}",110.0,0.0,,SrTiO 3,10.1103/physrevlett.115.017002
La Al O 3,{},"{'La': 1, 'Al': 1, 'O': 3}",82.0,0.0,films,,
Ba (Fe 0.935 Co 0.065) 2 As 2,{},"{'Ba': 1, 'Fe': 1.87, 'Co': 0.13, 'As': 2}",24.5,0.0,single crystal,,10.1016/j.jpcs.2010.10.004
Ba (Fe 0.93 Co 0.07) 2 As 2,{},"{'Ba': 1, 'Fe': 1.86, 'Co': 0.14, 'As': 2}",10.0,0.0,,,10.1016/j.jpcs.2010.10.004
Fe Se,{},"{'Fe': 1, 'Se': 1}",8.0,0.0,,,10.1016/j.jpcs.2010.10.004
Ba (Fe 0.94 Co 0.06) 2 As 2,{},"{'Ba': 1, 'Fe': 1.88, 'Co': 0.12, 'As': 2}",10.0,0.0,,,10.1016/j.jpcs.2010.10.004
Dy Sc O 3,{},"{'Dy': 1, 'Sc': 1, 'O': 3}",22.5,0.0,,,10.1016/j.jpcs.2010.10.004
Sr Ti O 3,{},"{'Sr': 1, 'Ti': 1, 'O': 3}",22.5,0.0,,,10.1016/j.jpcs.2010.10.004
(La Sr) (Al Ta) O 3,{},"{'La': 1, 'Sr': 1, 'Al': 1, 'Ta': 1, 'O': 3}",20.0,0.0,,,10.1016/j.jpcs.2010.10.004
Fe Te 0.55 Se 0.45,{},"{'Fe': 1, 'Te': 0.55, 'Se': 0.45}",14.0,0.0,,,10.1016/j.jpcs.2010.10.004
Fe Te 0.55 Se 0.45,{},"{'Fe': 1, 'Te': 0.55, 'Se': 0.45}",14.0,0.0,single crystal,,10.1016/j.jpcs.2010.10.004
Ba (Fe 0.95 Ni 0.05) 2 As 2,{},"{'Ba': 1, 'Fe': 1.9, 'Ni': 0.1, 'As': 2}",20.0,0.0,,,10.1103/physrevb.82.144519
Bi 2 Sr 2 Ca Cu 2 O 8,{},"{'Bi': 2, 'Sr': 2, 'Ca': 1, 'Cu': 2, 'O': 8}",64.0,0.0,,,10.1103/physrevlett.100.057001
Fe Te 0.5 Se 0.5,{},"{'Fe': 1, 'Te': 0.5, 'Se': 0.5}",14.0,0.0,crystal,,
Ce Pr Nd Sm,{},"{'Ce': 1, 'Pr': 1, 'Nd': 1, 'Sm': 1}",55.0,0.0,,,
Mg B 2,{},"{'Mg': 1, 'B': 2}",39.0,0.0,,,10.1103/physrevlett.95.197001
Nb Se 2,{},"{'Nb': 1, 'Se': 2}",7.0,0.0,single crystal,,10.1103/physrevlett.95.197001
Mg B 2,{},"{'Mg': 1, 'B': 2}",38.0,0.0,,,10.1103/physrevb.66.214503
Pr Os 4 Sb 12,{},"{'Pr': 1, 'Os': 4, 'Sb': 12}",1.75,0.0,single crystal,,10.1103/physrevlett.97.236403
B 2,{},{'B': 2},1.75,0.0,single crystal,,10.1103/physrevlett.97.236403
B 2,{},{'B': 2},30.0,0.0,,,10.1103/physrevlett.97.236403
Fe Te 0.56 Se 0.44,{},"{'Fe': 1, 'Te': 0.56, 'Se': 0.44}",14.5,0.0,,,
Fe Se,{},"{'Fe': 1, 'Se': 1}",8.0,0.0,,,10.1088/1742-6596/1238/1/012010
Fe Se,{},"{'Fe': 1, 'Se': 1}",100.0,0.0,monolayer,SrTiO 3,10.1088/1742-6596/1238/1/012010
Nb,{},{'Nb': 1},8.0,0.0,films,,10.1209/epl/i2002-00433-3
Mg B 2,{},"{'Mg': 1, 'B': 2}",39.0,0.0,,,10.1063/1.1530735
K x Fe 2 Se 2,{'x': []},,30.0,0.0,,,10.1209/0295-5075/93/47004
Tl 0.58 Rb 0.42 Fe 1.72 Se 2,{},"{'Tl': 0.58, 'Rb': 0.42, 'Fe': 1.72, 'Se': 2}",32.0,0.0,crystals,,10.1209/0295-5075/93/47004
Tl 0.58 Rb 0.42 Fe 1.72 Se 2,{},"{'Tl': 0.58, 'Rb': 0.42, 'Fe': 1.72, 'Se': 2}",32.0,0.0,single crystals,,10.1209/0295-5075/93/47004
La O 1-x F x Fe As,{'x': []},,26.0,0.0,,,10.1209/0295-5075/93/47004
(Tl K) Fe x Se 2,{'x': []},,31.0,0.0,,,10.1209/0295-5075/93/47004
Ca Fe 2 As 2,{},"{'Ca': 1, 'Fe': 2, 'As': 2}",45.0,0.0,,,
Ca 1-x La x Fe 2 As 2,{'x': []},,40.0,0.0,,,
Ca 1-x La x Fe 2 (As 0.94 P 0.06) 2,{'x': [0.17]},"{'Ca': 0.83, 'La': 0.17, 'Fe': 2, 'As': 1.88, 'P': 0.12}",45.0,0.0,,,
Ca Fe 2 (As 1-x P x) 2,{'x': []},,15.0,0.0,,,
Ba 15,{},{'Ba': 15},38.0,0.0,,,
Ba 1-x K x Fe 2 As 2,{'x': []},,45.0,0.0,,,
Ca 1-x La x Fe 2 (As 1-y P y) 2,"{'x': [], 'y': []}",,45.0,0.0,,,
Ca 1-x La x Fe 2 (As 0.94 P 0.06) 2,{'x': []},,45.0,0.0,,,
La Fe As O,{},"{'La': 1, 'Fe': 1, 'As': 1, 'O': 1}",26.0,0.0,,,
S H 2,{},"{'S': 1, 'H': 2}",93.5,0.0,,,10.1063/1.1940731
Ba (Fe 1-x Co x) 2 As 2,{'x': []},,26.0,0.0,,,10.1103/physrevb.80.214531
Zr V 2,{},"{'Zr': 1, 'V': 2}",8.5,0.0,,,
Zr V 2,{},"{'Zr': 1, 'V': 2}",5.2,0.0,,,
Zr V 2,{},"{'Zr': 1, 'V': 2}",5.4,0.0,,,
Zr V 2,{},"{'Zr': 1, 'V': 2}",5.3,0.0,,,
Fe Se,{},"{'Fe': 1, 'Se': 1}",65.0,0.0,films,,10.1103/physrevb.89.224515
K x Fe 2-y Se 2,"{'x': [], 'y': []}",,32.0,0.0,sin- gle crystals,,10.1103/physrevb.89.224515
Fe 1-x Se,{'x': []},,8.0,0.0,single crystals 2,,10.1103/physrevb.89.224515
Mg C Ni 3,{},"{'Mg': 1, 'C': 1, 'Ni': 3}",8.0,0.0,,,10.1103/physrevb.64.100508
Fe Se,{},"{'Fe': 1, 'Se': 1}",3.7,0.0,films,,10.1088/2053-1583/3/2/024002
Fe Se,{},"{'Fe': 1, 'Se': 1}",9.4,0.0,,,10.1088/2053-1583/3/2/024002
Fe Se,{},"{'Fe': 1, 'Se': 1}",26.0,0.0,film,,10.1088/2053-1583/3/2/024002
Fe Te,{},"{'Fe': 1, 'Te': 1}",45.0,0.0,film,,10.1088/2053-1583/3/2/024002
Fe Se,{},"{'Fe': 1, 'Se': 1}",45.0,0.0,film,,10.1088/2053-1583/3/2/024002
Fe Se,{},"{'Fe': 1, 'Se': 1}",2.0,0.0,,,10.1088/2053-1583/3/2/024002
Fe Te,{},"{'Fe': 1, 'Te': 1}",2.0,0.0,,,10.1088/2053-1583/3/2/024002
La 1.85 Sr 0.15 Cu O 4,{},"{'La': 1.85, 'Sr': 0.15, 'Cu': 1, 'O': 4}",38.0,0.0,,,10.1103/physrevb.65.224520
Pr O 0.5 F 0.5 Bi S 2,{},"{'Pr': 1, 'O': 0.5, 'F': 0.5, 'Bi': 1, 'S': 2}",3.5,0.0,,,
Bi 4 O 4 S 3,{},"{'Bi': 4, 'O': 4, 'S': 3}",4.0,0.0,,,
Bi 4 O 4 S 3,{},"{'Bi': 4, 'O': 4, 'S': 3}",8.7,0.0,,,
Fe Te 0.5 Se 0.5,{},"{'Fe': 1, 'Te': 0.5, 'Se': 0.5}",14.0,0.0,crystal,,10.1103/physrevlett.104.187002
Cu 2.01 O 8+δ,{'δ': []},,84.0,0.0,,,10.1103/physrevb.72.144519
Mg B 2,{},"{'Mg': 1, 'B': 2}",39.0,0.0,,,10.1143/jpsj.72.29
Mg B 2,{},"{'Mg': 1, 'B': 2}",41.0,0.0,single crystals,,10.1103/physrevb.77.100507
Ba Fe 2 As 2,{},"{'Ba': 1, 'Fe': 2, 'As': 2}",29.0,0.0,single crystals,,10.1103/physrevb.80.064509
Ba Fe 2 As 2,{},"{'Ba': 1, 'Fe': 2, 'As': 2}",22.0,0.0,,,10.1103/physrevb.80.064509
Sr 1-x K x Fe 2 As 2,{'x': [0.15]},"{'Sr': 0.85, 'K': 0.15, 'Fe': 2, 'As': 2}",29.0,0.0,,,10.1103/physrevb.80.064509
Ba 1-x K x Fe 2 As 2,{'x': [0.28]},"{'Ba': 0.72, 'K': 0.28, 'Fe': 2, 'As': 2}",29.0,0.0,,,10.1103/physrevb.80.064509
Sr,{},{'Sr': 1},38.0,0.0,,,10.1103/physrevb.80.064509
Fe Te 0.55 Se 0.45,{},"{'Fe': 1, 'Te': 0.55, 'Se': 0.45}",14.5,0.0,,,10.1126/science.aao1797
Fe Te 1-x Se x,{'x': [0.45]},"{'Fe': 1, 'Te': 0.55, 'Se': 0.45}",14.5,0.0,,,10.1126/science.aao1797
Fe Te 0.55 Se 0.45,{},"{'Fe': 1, 'Te': 0.55, 'Se': 0.45}",14.5,0.0,single crystals,,10.1126/science.aao1797
Ba 2 Cu 3-x O 61-y1,"{'x': [], 'y': []}",,13.0,0.0,,,10.1209/epl/i2002-00168-7
Ce Te 1.82,{},"{'Ce': 1, 'Te': 1.82}",2.7,0.0,,,10.1088/0953-8984/21/2/026004
Fe Se,{},"{'Fe': 1, 'Se': 1}",35.0,0.0,thin films,,10.1073/pnas.1520810113
Fe Se,{},"{'Fe': 1, 'Se': 1}",109.0,0.0,thin,,10.1073/pnas.1520810113
Fe Se,{},"{'Fe': 1, 'Se': 1}",8.0,0.0,,,10.1073/pnas.1520810113
Fe Se,{},"{'Fe': 1, 'Se': 1}",35.0,0.0,thin film,,10.1073/pnas.1520810113
Fe Se,{},"{'Fe': 1, 'Se': 1}",35.0,0.0,,,10.1073/pnas.1520810113
Fe Se,{},"{'Fe': 1, 'Se': 1}",35.0,0.0,epitaxial films,,10.1073/pnas.1520810113
Y Ba 2 Cu 3 O 7-δ,{'δ': []},,50.0,0.0,,,10.1063/1.59581
Bi S C C O,{},"{'Bi': 1, 'S': 1, 'C': 2, 'O': 1}",90.0,0.0,,,10.1103/physrevlett.81.906
Fe Te 0.6 Se 0.4,{},"{'Fe': 1, 'Te': 0.6, 'Se': 0.4}",14.0,0.0,,,10.1088/1361-648x/ab3b3b
Fe Te 1-x Se x,{'x': [0.4]},"{'Fe': 1, 'Te': 0.6, 'Se': 0.4}",14.0,0.0,,,10.1088/1361-648x/ab3b3b
Fe 1-y Ni y Te 0.5 Se 0.5,{'y': [0.02]},"{'Fe': 0.98, 'Ni': 0.02, 'Te': 0.5, 'Se': 0.5}",12.0,0.0,,,10.1088/1361-648x/ab3b3b
Fe Se,{},"{'Fe': 1, 'Se': 1}",8.0,0.0,,,10.1088/1361-648x/ab3b3b
Fe Se,{},"{'Fe': 1, 'Se': 1}",9.0,0.0,bulk,,10.1088/0256-307x/32/11/117402
K Ca 2 Fe 4 As 4 F 2,{},"{'K': 1, 'Ca': 2, 'Fe': 4, 'As': 4, 'F': 2}",33.5,0.0,,,10.1038/ncomms14480
Ti N,{},"{'Ti': 1, 'N': 1}",5.6,0.0,film,,10.1109/tasc.2010.2081653
Sr 2 Ru O 4,{},"{'Sr': 2, 'Ru': 1, 'O': 4}",1.5,0.0,,,10.1103/physrevb.63.180504
Sr 3 Ru 2 O 7,{},"{'Sr': 3, 'Ru': 2, 'O': 7}",100.0,0.0,,,10.1103/physrevb.63.180504
Mg B 2,{},"{'Mg': 1, 'B': 2}",39.0,0.0,,,10.1103/physrevb.76.024519
Eu Fe 2 As 2,{},"{'Eu': 1, 'Fe': 2, 'As': 2}",29.5,2.0,,,10.1103/physrevb.79.155103
Eu 0.5 K 0.5 Fe 2 As 2,{},"{'Eu': 0.5, 'K': 0.5, 'Fe': 2, 'As': 2}",31.0,0.0,,,10.1103/physrevb.79.155103
La Fe As O 1-x F x,{'x': []},,26.0,0.0,,,10.1103/physrevb.79.155103
K 0.8 Fe 2 Se 2,{},"{'K': 0.8, 'Fe': 2, 'Se': 2}",30.0,0.0,,,10.1088/0256-307x/28/8/086104
K 0.8 Fe 1.6 Se 2,{},"{'K': 0.8, 'Fe': 1.6, 'Se': 2}",32.0,0.0,,,10.1088/0256-307x/28/8/086104
Ce Ir In 5,{},"{'Ce': 1, 'Ir': 1, 'In': 5}",0.4,0.0,,,10.1088/0953-8984/14/21/101
Ce Co In 5,{},"{'Ce': 1, 'Co': 1, 'In': 5}",2.3,0.0,,,10.1088/0953-8984/14/21/101
Mg B 2,{},"{'Mg': 1, 'B': 2}",50.0,0.0,,,10.1088/0953-2048/21/2/025012
Bi 2 Sr 2 Ca 2 Cu 3 O 10+δ,{'δ': []},,111.0,0.0,,,
Bi 2 Sr 2 Ca Cu 2 O 8,{},"{'Bi': 2, 'Sr': 2, 'Ca': 1, 'Cu': 2, 'O': 8}",56.0,0.0,,,10.1155/2010/958618