Material,Substitutions,Composition,Tc (K),Pressure (GPa),Shape,Substrate,DOI
Fe Te 0.5 Se 0.5,{},"{'Fe': 1, 'Te': 0.5, 'Se': 0.5}",13.0,0.0,,,10.1007/s10948-014-2559-3
Fe Te 0.5 Se 0.5,{},"{'Fe': 1, 'Te': 0.5, 'Se': 0.5}",14.0,25.3,,,10.1007/s10948-014-2559-3
La Fe As O 1-x F x,{'x': []},,26.0,0.0,,,10.1007/s10948-014-2559-3
Fe Te 0.5 Se 0.5,{},"{'Fe': 1, 'Te': 0.5, 'Se': 0.5}",25.0,0.0,,,10.1007/s10948-014-2559-3
Fe 1+x Se,{'x': []},,8.0,0.0,,,10.1007/s10948-014-2559-3
Mg B 2,{},"{'Mg': 1, 'B': 2}",40.0,0.0,,,10.1103/physrevlett.94.027002
Fe Se,{},"{'Fe': 1, 'Se': 1}",9.0,0.0,,,10.1007/s10948-017-4404-y
Ca K Fe 4 As 4,{},"{'Ca': 1, 'K': 1, 'Fe': 4, 'As': 4}",30.0,0.0,,,10.1007/s10948-017-4404-y
Ca Rb Fe 4 As 4,{},"{'Ca': 1, 'Rb': 1, 'Fe': 4, 'As': 4}",30.0,0.0,,,10.1007/s10948-017-4404-y
Ca Cs Fe 4 As 4,{},"{'Ca': 1, 'Cs': 1, 'Fe': 4, 'As': 4}",30.0,0.0,,,10.1007/s10948-017-4404-y
La Fe P O,{},"{'La': 1, 'Fe': 1, 'P': 1, 'O': 1}",6.0,0.0,,,10.1007/s10948-017-4404-y
Ca Rb Fe 4 As 4,{},"{'Ca': 1, 'Rb': 1, 'Fe': 4, 'As': 4}",35.0,0.0,,,10.1007/s10948-017-4404-y
K Fe 2 As 2,{},"{'K': 1, 'Fe': 2, 'As': 2}",3.6,0.0,,,10.1007/s10948-017-4404-y
Li Fe As,{},"{'Li': 1, 'Fe': 1, 'As': 1}",18.0,0.0,,,10.1007/s10948-017-4404-y
Ca Al Si,{},"{'Ca': 1, 'Al': 1, 'Si': 1}",7.8,0.0,,,10.1016/j.physc.2012.02.017
Mg B 2,{},"{'Mg': 1, 'B': 2}",39.0,0.0,,,10.1016/j.physc.2012.02.017
Ba Al Ge,{},"{'Ba': 1, 'Al': 1, 'Ge': 1}",6.3,0.0,,,10.1016/j.physc.2012.02.017
Sr Al Ge,{},"{'Sr': 1, 'Al': 1, 'Ge': 1}",6.7,0.0,,,10.1016/j.physc.2012.02.017
Ca Si 2,{},"{'Ca': 1, 'Si': 2}",14.0,16.0,,,10.1016/j.physc.2012.02.017
Nb Se 2,{},"{'Nb': 1, 'Se': 2}",6.5,0.0,,,
Pu Co Ga 5,{},"{'Pu': 1, 'Co': 1, 'Ga': 5}",18.5,0.0,,,10.1103/physrevb.87.020505
Pu Co In 5,{},"{'Pu': 1, 'Co': 1, 'In': 5}",2.5,0.0,,,10.1103/physrevb.87.020505
Fe Se,{},"{'Fe': 1, 'Se': 1}",10.0,0.0,,,10.1016/j.ssc.2012.04.002
Fe Te 1-x S x,{'x': []},,8.0,0.0,,,10.1016/j.ssc.2012.04.002
Pr 1.85 Ce 0.15 Cu O 4-y,{'y': []},,22.0,0.0,crystal,,
Tl 2 Ba 2 Cu O 6+y,{'y': []},,15.0,0.0,,,
V 3 Si,{},"{'V': 3, 'Si': 1}",22.0,0.0,,,
Pr 1.85 Ce 0.15 Cu O 4-y,{'y': []},,21.0,0.0,,,
Pr 1.85 Ce 0.15 Cu O 4-y,{'y': []},,23.0,0.0,crystal,,
Li 1-δ Fe As,{'δ': []},,18.0,0.0,,,10.1021/jp506862b
Fe Se,{},"{'Fe': 1, 'Se': 1}",38.0,0.0,,,10.1021/jp506862b
Ba Fe 2 As 2,{},"{'Ba': 1, 'Fe': 2, 'As': 2}",8.0,0.0,,,10.1021/jp506862b
Bi 2 Sr 2 Ca Cu 2 O 8,{},"{'Bi': 2, 'Sr': 2, 'Ca': 1, 'Cu': 2, 'O': 8}",97.0,0.0,,,10.1142/s0217979200003149
La 1.77 Sr 0.23 Cu O 4,{},"{'La': 1.77, 'Sr': 0.23, 'Cu': 1, 'O': 4}",25.0,0.0,,,
Mg B 2,{},"{'Mg': 1, 'B': 2}",40.0,0.0,,,10.1103/physrevb.70.064503
Cu 1.3 K 0.2 Co 1.5 S 4,{},"{'Cu': 1.3, 'K': 0.2, 'Co': 1.5, 'S': 4}",4.4,0.0,,,
Cu Co 2 S 4,{},"{'Cu': 1, 'Co': 2, 'S': 4}",4.3,0.0,,,
Cu Co 2 S 4,{},"{'Cu': 1, 'Co': 2, 'S': 4}",4.2,0.0,,,
Cu Co 2 S 4,{},"{'Cu': 1, 'Co': 2, 'S': 4}",1.8,0.0,,,
Cu Rh 2 Se 4,{},"{'Cu': 1, 'Rh': 2, 'Se': 4}",3.5,0.0,,,
Cu Co 2 S 4,{},"{'Cu': 1, 'Co': 2, 'S': 4}",4.0,0.0,,,
Cu Co 2 S 3.7,{},"{'Cu': 1, 'Co': 2, 'S': 3.7}",1.8,0.0,,,
Cu Co 2 S 4,{},"{'Cu': 1, 'Co': 2, 'S': 4}",0.05,0.0,,,
Cu (Ir 0.8 Pt 0.2) 2 Se 4,{},"{'Cu': 1, 'Ir': 1.6, 'Pt': 0.4, 'Se': 4}",1.76,0.0,,,
Cu 1.5 Co 1.5 S 4,{},"{'Cu': 1.5, 'Co': 1.5, 'S': 4}",4.0,0.0,,,
Pr Fe As O 1-y,{'y': []},,35.0,0.0,single crystal,,10.1103/physrevlett.102.017002
Pr Fe As O 1-y,{'y': []},,35.0,0.0,,,10.1103/physrevlett.102.017002
Pr Fe As O 1-y,{'y': []},,51.0,0.0,,,10.1103/physrevlett.102.017002
Y Ba 2 Cu 3 O 6.6,{},"{'Y': 1, 'Ba': 2, 'Cu': 3, 'O': 6.6}",60.0,0.0,,,10.1103/physrevb.65.134511
La 1.83 Sr 0.17 Cu O 4,{},"{'La': 1.83, 'Sr': 0.17, 'Cu': 1, 'O': 4}",36.0,0.0,,,10.1103/physrevb.65.134511
Hf V 2,{},"{'Hf': 1, 'V': 2}",4.2,0.0,,,10.1088/1361-6668/ab490e
Hf V 2,{},"{'Hf': 1, 'V': 2}",9.4,0.0,,,10.1088/1361-6668/ab490e
La Al O 3,{},"{'La': 1, 'Al': 1, 'O': 3}",0.5,0.0,,,
K 3 C 22 H 14,{},"{'K': 3, 'C': 22, 'H': 14}",18.0,0.0,,,10.1103/physrevb.84.020508
Mg B 2,{},"{'Mg': 1, 'B': 2}",39.0,0.0,,,10.1103/physrevb.84.020508
Ba 1-x K x Fe 2 As 2,{'x': [0.4]},"{'Ba': 0.6, 'K': 0.4, 'Fe': 2, 'As': 2}",3.0,0.0,,,10.1088/0953-8984/24/29/294202
Ba 1-x K x Fe 2 As 2,{'x': [0.4]},"{'Ba': 0.6, 'K': 0.4, 'Fe': 2, 'As': 2}",37.0,0.0,,,10.1088/0953-8984/24/29/294202
K Fe 2 As 2,{},"{'K': 1, 'Fe': 2, 'As': 2}",3.0,0.0,,,10.1088/0953-8984/24/29/294202
Ce Co In 5,{},"{'Ce': 1, 'Co': 1, 'In': 5}",2.3,0.0,,,10.1103/physrevlett.92.016401
K x Fe 2 Se 2,{'x': []},,30.0,0.0,,,10.1088/0953-2048/25/8/084023
K 73,{},{'K': 73},23.0,0.0,,,10.1088/0953-2048/25/8/084023
Fe Se,{},"{'Fe': 1, 'Se': 1}",8.0,0.0,,,10.1088/0953-2048/25/8/084023
Mg B 2,{},"{'Mg': 1, 'B': 2}",41.8,0.0,,,10.1088/0953-2048/17/12/014
Bi 2 Sr 2 Ca Cu 2 O 8+δ,{'δ': []},,85.0,0.0,single crystal,,
Bi 2 Sr 2-x La x Cu O 6+δ,"{'δ': [], 'x': [0.4]}",,29.0,0.0,,,
Bi 2 Sr 2-x La x Cu O 6+δ,"{'δ': [], 'x': [0.4]}",,29.0,0.0,single crystals,,
Nb 2 Pd S 5,{},"{'Nb': 2, 'Pd': 1, 'S': 5}",6.6,0.0,,,10.1063/1.4948164
Ta 2 Pd Te 6,{},"{'Ta': 2, 'Pd': 1, 'Te': 6}",4.4,0.0,,,10.1063/1.4948164
Nb 2 Pd S 5,{},"{'Nb': 2, 'Pd': 1, 'S': 5}",4.4,0.0,,,10.1063/1.4948164
Ta 4 Pd 3 Te 16,{},"{'Ta': 4, 'Pd': 3, 'Te': 16}",4.5,0.0,,,10.1063/1.4948164
Ag,{},{'Ag': 1},94.0,0.0,film,,10.1063/1.1991986
K Os 2 O 6,{},"{'K': 1, 'Os': 2, 'O': 6}",6.0,5.0,single crystal,,10.1143/jpsj.79.114710
Si H 4 (H 2) 2,{},"{'Si': 1, 'H': 8}",107.0,250.0,,,10.1016/j.ssc.2012.10.015
La Fe As O 0.85,{},"{'La': 1, 'Fe': 1, 'As': 1, 'O': 0.85}",26.0,0.0,,,10.1103/physrevb.82.054506
La Fe As O 1-δ,{'δ': [0.12]},"{'La': 1, 'Fe': 1, 'As': 1, 'O': 0.88}",21.0,0.0,,,10.1103/physrevb.82.054506
W Si,{},"{'W': 1, 'Si': 1}",4.75,0.0,films,,
Bi 2 Sr 2 Ca Cu 2 O 8+δ,{'δ': []},,80.0,4.0,single crystal,,
Bi 2 Sr 2 Ca Cu 2 O 8+δ,{'δ': []},,90.0,20.0,,,
Bi 2 Sr 2 Ca Cu 2 O 8+δ,{'δ': []},,54.0,1.6,sin- gle crystal,,
Bi 2 Sr 2 Ca Cu 2 O 8+δ,{'δ': []},,90.0,0.0,single crystals,,
Bi 2 Sr 2 Ca Cu O 8-δ,{'δ': []},,90.0,0.0,,,10.1007/s10948-019-05183-9
Y Ba 2 Cu 3 O 7-δ,{'δ': []},,87.5,0.0,,,10.1103/physrevb.72.024506
Ba 0.5 Sr 0.5 (Fe 1-x Co x) 2 As 2,{'x': [0.073]},"{'Ba': 0.5, 'Sr': 0.5, 'Fe': 1.854, 'Co': 0.146, 'As': 2}",17.0,0.0,crystal,,10.1209/0295-5075/122/67006
Ba 0.5 Sr 0.5 (Fe 1-x Co x) 2 As 2,{'x': [0.14]},"{'Ba': 0.5, 'Sr': 0.5, 'Fe': 1.72, 'Co': 0.28, 'As': 2}",5.0,0.0,,,10.1209/0295-5075/122/67006
La 1+x Sr x Cu O 4,{'x': [0.45]},"{'La': 1.45, 'Sr': 0.45, 'Cu': 1, 'O': 4}",50.0,0.0,,,10.1209/0295-5075/122/67006
Mg B 2,{},"{'Mg': 1, 'B': 2}",15.8,0.0,,,10.1142/9789812777805_0035
Mo 0.75 Si 0.25,{},"{'Mo': 0.75, 'Si': 0.25}",7.5,0.0,film,,10.1088/0953-2048/27/9/095012
Fe Se,{},"{'Fe': 1, 'Se': 1}",8.0,0.0,,,10.1103/physrevb.84.144520
Fe Se 9,{},"{'Fe': 1, 'Se': 9}",30.0,0.0,potassium intercalated,,10.1103/physrevb.84.144520
Rb 2 Fe 4 Se 5,{},"{'Rb': 2, 'Fe': 4, 'Se': 5}",32.4,0.0,,,10.1103/physrevb.84.144520
Rb 0.8 Fe 1.6 Se 2,{},"{'Rb': 0.8, 'Fe': 1.6, 'Se': 2}",32.4,0.0,,,10.1103/physrevb.84.144520
As 2,{},{'As': 2},32.0,0.0,,,10.1088/0953-8984/23/45/455702
Dy Ni 2 B 2 C,{},"{'Dy': 1, 'Ni': 2, 'B': 2, 'C': 1}",6.2,0.0,,,10.1088/0953-8984/23/45/455702
Bi 2 Sr 2 Ca Cu 2 O 8+δ,{'δ': []},,91.0,0.0,,,10.1103/physrevb.96.184518
Ba 1-x K x Bi O 3,{'x': []},,30.0,0.0,,,10.1016/s0921-4534(00)00664-x
Nb 0.18 Re 0.82,{},"{'Nb': 0.18, 'Re': 0.82}",8.5,0.0,,,10.1103/physrevb.88.144510
Ce Cu 2 Si 2,{},"{'Ce': 1, 'Cu': 2, 'Si': 2}",0.6,0.0,,,10.1038/nphys1852
Hg Ba 2 Cu O 6,{},"{'Hg': 1, 'Ba': 2, 'Cu': 1, 'O': 6}",95.9,0.0,,,
Sm B C O,{},"{'Sm': 1, 'B': 1, 'C': 1, 'O': 1}",87.0,0.0,,,10.1007/s10948-006-0131-5
Ce Pt 3 P,{},"{'Ce': 1, 'Pt': 3, 'P': 1}",0.5,0.0,,,10.1038/srep41853
La Pt 3 P,{},"{'La': 1, 'Pt': 3, 'P': 1}",1.0,0.0,,,10.1038/srep41853
Ce Pt 3 Si,{},"{'Ce': 1, 'Pt': 3, 'Si': 1}",0.75,0.0,,,10.1038/srep41853
Sr Pt 3 P,{},"{'Sr': 1, 'Pt': 3, 'P': 1}",8.4,0.0,,,10.1038/srep41853
Ca Pt 3 P,{},"{'Ca': 1, 'Pt': 3, 'P': 1}",8.4,0.0,,,10.1038/srep41853
La Pt 3 P,{},"{'La': 1, 'Pt': 3, 'P': 1}",8.4,0.0,,,10.1038/srep41853
Sr Pt 3 P,{},"{'Sr': 1, 'Pt': 3, 'P': 1}",6.6,0.0,,,10.1038/srep41853
Ca Pt 3 P,{},"{'Ca': 1, 'Pt': 3, 'P': 1}",6.6,0.0,,,10.1038/srep41853
La Pt 3 P,{},"{'La': 1, 'Pt': 3, 'P': 1}",6.6,0.0,,,10.1038/srep41853
Pr Pt 4 Ge 12,{},"{'Pr': 1, 'Pt': 4, 'Ge': 12}",7.9,0.0,,,10.1038/srep41853
Nb N,{},"{'Nb': 1, 'N': 1}",9.0,0.0,film,,10.1103/physrevb.96.054509
Nb N,{},"{'Nb': 1, 'N': 1}",9.0,0.0,thin film,,10.1103/physrevb.96.054509
Nb Se 2,{},"{'Nb': 1, 'Se': 2}",7.2,0.0,single crystal,,10.1103/physrevb.96.054509
Sn Mo 6 S 8,{},"{'Sn': 1, 'Mo': 6, 'S': 8}",14.2,0.0,,,
Sn Mo 6 S 8,{},"{'Sn': 1, 'Mo': 6, 'S': 8}",9.3,0.0,,,
Pb Mo 6 S 8,{},"{'Pb': 1, 'Mo': 6, 'S': 8}",14.9,0.0,,,
Pb Mo 6 S 8,{},"{'Pb': 1, 'Mo': 6, 'S': 8}",4.4,0.0,,,
K Os 2 O 6,{},"{'K': 1, 'Os': 2, 'O': 6}",9.6,0.0,,,
Li Ti 2 O 4,{},"{'Li': 1, 'Ti': 2, 'O': 4}",13.6,0.0,,,
Rb Os 2 O 6,{},"{'Rb': 1, 'Os': 2, 'O': 6}",6.2,0.0,,,
Cd 2 Re 2 O 7,{},"{'Cd': 2, 'Re': 2, 'O': 7}",1.0,0.0,,,
Gd O 0.83 F 0.17 Fe As,{},"{'Gd': 1, 'O': 0.83, 'F': 0.17, 'Fe': 1, 'As': 1}",36.6,0.0,,,10.1007/s11433-008-0075-9
Gd O 1-x F x Fe As,{'x': []},,36.0,0.0,,,10.1007/s11433-008-0075-9
La 1-x Sr x O Fe As,{'x': []},,25.0,0.0,,,10.1007/s11433-008-0075-9
Ce Co In 5,{},"{'Ce': 1, 'Co': 1, 'In': 5}",2.3,0.0,,,10.1143/jpsj.71.2836
Ce 2 Co In 8,{},"{'Ce': 2, 'Co': 1, 'In': 8}",0.4,0.0,,,10.1143/jpsj.71.2836
Ce Ir In 5,{},"{'Ce': 1, 'Ir': 1, 'In': 5}",0.4,0.0,,,10.1143/jpsj.71.2836
Ce 2 Co In 8,{},"{'Ce': 2, 'Co': 1, 'In': 8}",0.1,0.0,,,10.1143/jpsj.71.2836
Ce 2 Ir In 8,{},"{'Ce': 2, 'Ir': 1, 'In': 8}",0.4,0.0,member,,10.1143/jpsj.71.2836
U Ge 2,{},"{'U': 1, 'Ge': 2}",52.0,0.0,,,10.1143/jpsj.70.2876
La Fe As O 1-x F x,{'x': []},,26.0,0.0,,,10.1143/jpsj.77.103703
Y Ba 2 Cu 3 O 7,{},"{'Y': 1, 'Ba': 2, 'Cu': 3, 'O': 7}",63.0,0.0,,,
Nb,{},{'Nb': 1},9.1,0.0,film,,10.1103/physrevb.86.054524
Dy Ni 2 B 2 C,{},"{'Dy': 1, 'Ni': 2, 'B': 2, 'C': 1}",6.0,0.0,,,10.1016/s0921-4534(00)00227-6
Sn I,{},"{'Sn': 1, 'I': 1}",4.0,0.0,,,10.1103/physrevb.97.144509
Sr x Bi 2 Se 3,{'x': []},,3.1,0.0,,,10.1103/physrevlett.123.027002
Ce In 3,{},"{'Ce': 1, 'In': 3}",230.0,2.43,,,10.1143/jpsj.73.1647
Ce In 3,{},"{'Ce': 1, 'In': 3}",95.0,2.65,,,10.1143/jpsj.73.1647
Ce In 3,{},"{'Ce': 1, 'In': 3}",0.2,2.5,,,10.1143/jpsj.73.1647
Nb Se 2,{},"{'Nb': 1, 'Se': 2}",7.2,0.0,,,10.1016/j.physc.2007.03.338
Ce Co In 5,{},"{'Ce': 1, 'Co': 1, 'In': 5}",2.25,0.0,,,10.1016/j.physb.2017.10.034
Y Co C 2,{},"{'Y': 1, 'Co': 1, 'C': 2}",4.2,0.0,,,10.1063/1.5123222
Fe Te,{},"{'Fe': 1, 'Te': 1}",40.0,0.0,films,,10.1038/ncomms6044
Fe Se,{},"{'Fe': 1, 'Se': 1}",65.0,0.0,"single layer, films",SrTiO 3,10.1038/ncomms6044
Ba Ti O 3,{},"{'Ba': 1, 'Ti': 1, 'O': 3}",75.0,0.0,"films, films",,10.1038/ncomms6044
K Ta O 3,{},"{'K': 1, 'Ta': 1, 'O': 3}",75.0,0.0,"films, films",,10.1038/ncomms6044
Hg Ba 2 Cu O 6,{},"{'Hg': 1, 'Ba': 2, 'Cu': 1, 'O': 6}",85.0,0.0,,,
Hg Ba 2 Cu O 6,{},"{'Hg': 1, 'Ba': 2, 'Cu': 1, 'O': 6}",25.0,0.0,,,
Cu 0.24 Bi 2 Se 3,{},"{'Cu': 0.24, 'Bi': 2, 'Se': 3}",3.5,0.0,,,
Bi 2 Se 3,{},"{'Bi': 2, 'Se': 3}",3.5,0.0,,,
Fe 0.6 Ni 0.4 Zr 2,{},"{'Fe': 0.6, 'Ni': 0.4, 'Zr': 2}",0.3,0.0,,,10.1103/physrevb.79.184525
Sr Cu O 2,{},"{'Sr': 1, 'Cu': 1, 'O': 2}",1.5,0.0,,,10.1103/physrevb.62.r6108
Sr 2 Ru O 4,{},"{'Sr': 2, 'Ru': 1, 'O': 4}",1.4,0.0,,,10.1209/0295-5075/89/67007
Sr 2 Ru O 4,{},"{'Sr': 2, 'Ru': 1, 'O': 4}",1.5,0.0,,,10.1103/physrevlett.121.167001
Ta 34 Nb 33 Hf 8 Zr 15,{},"{'Ta': 34, 'Nb': 33, 'Hf': 8, 'Zr': 15}",7.3,0.0,,,
Eu 1-x Gd x O,{'x': [0.006]},"{'Eu': 0.994, 'Gd': 0.006, 'O': 1}",70.0,0.0,,,10.1103/physrevlett.88.127401
Bi 2 Sr 2 Ca Cu 2 O 8+δ,{'δ': []},,88.0,0.0,,,10.1103/physrevb.70.100504
Mg B 2,{},"{'Mg': 1, 'B': 2}",39.0,0.0,,,10.1016/s0921-4534(01)00286-6
Nb 3 Ge,{},"{'Nb': 3, 'Ge': 1}",23.2,0.0,,,10.1016/s0921-4534(01)00286-6
Y Pd 2 B 2 C,{},"{'Y': 1, 'Pd': 2, 'B': 2, 'C': 1}",23.0,0.0,,,10.1016/s0921-4534(01)00286-6
La O Fe P,{},"{'La': 1, 'O': 1, 'Fe': 1, 'P': 1}",4.0,0.0,,,10.1103/physrevb.79.064511
La (O 1-x F x) Fe As 4,{'x': []},,26.0,0.0,,,10.1103/physrevb.79.064511
La O Ni P 3,{},"{'La': 1, 'O': 1, 'Ni': 1, 'P': 3}",4.0,0.0,,,10.1103/physrevb.79.064511
S ample B 2,"{'p': [], 'e': [], 'm': [], 'a': [], 'l': []}",,95.0,0.0,,,
Tl 2 Ba 2 Cu O 6,{},"{'Tl': 2, 'Ba': 2, 'Cu': 1, 'O': 6}",15.0,0.0,,,10.1088/0953-8984/20/12/123201
Tl 2 Ba 2 Cu O 6,{},"{'Tl': 2, 'Ba': 2, 'Cu': 1, 'O': 6}",30.0,0.0,,,10.1088/0953-8984/20/12/123201
Y Ba 2 Cu 3 O 6.6,{},"{'Y': 1, 'Ba': 2, 'Cu': 3, 'O': 6.6}",62.7,0.0,,,10.2172/554760
Li Fe As,{},"{'Li': 1, 'Fe': 1, 'As': 1}",17.0,0.0,,,10.1103/physrevlett.109.087002
Ho Ni 2 B 2 C,{},"{'Ho': 1, 'Ni': 2, 'B': 2, 'C': 1}",15.0,0.0,,,10.1016/0921-4526(95)00031-4
Sm O Fe As,{},"{'Sm': 1, 'O': 1, 'Fe': 1, 'As': 1}",55.0,0.0,,,10.1016/0921-4526(95)00031-4
La O Fe As,{},"{'La': 1, 'O': 1, 'Fe': 1, 'As': 1}",26.0,0.0,,,10.1016/0921-4526(95)00031-4
Eu Fe 2 As 2,{},"{'Eu': 1, 'Fe': 2, 'As': 2}",34.0,0.0,,,10.1016/0921-4526(95)00031-4
Hg Ba 2 Ca Cu 2 O 6+δ,{'δ': []},,126.0,0.0,single crystals,,10.1209/epl/i1997-00336-3
Nb C 0.3 N 0.7,{},"{'Nb': 1, 'C': 0.3, 'N': 0.7}",18.0,0.0,,,10.1103/physrevb.70.014501
Nb N,{},"{'Nb': 1, 'N': 1}",9.5,50.0,,,10.1103/physrevb.70.014501
Sm O Fe As,{},"{'Sm': 1, 'O': 1, 'Fe': 1, 'As': 1}",55.0,0.0,,,10.1016/j.physc.2015.05.006
Na Fe 0.975 Co 0.025 As,{},"{'Na': 1, 'Fe': 0.975, 'Co': 0.025, 'As': 1}",21.0,0.0,,,10.1016/j.cossms.2013.03.005
Sm Fe As O 0.8 F 0.2,{},"{'Sm': 1, 'Fe': 1, 'As': 1, 'O': 0.8, 'F': 0.2}",45.0,0.0,,,10.1016/j.cossms.2013.03.005
K Fe 2 Se 2,{},"{'K': 1, 'Fe': 2, 'Se': 2}",32.0,0.0,,,10.1016/j.cossms.2013.03.005
Fe Se 0.4 Te 0.6,{},"{'Fe': 1, 'Se': 0.4, 'Te': 0.6}",14.5,0.0,,,10.1016/j.cossms.2013.03.005
Ba 0.6 K 0.4 Fe 2 As 2,{},"{'Ba': 0.6, 'K': 0.4, 'Fe': 2, 'As': 2}",38.0,0.0,,,10.1016/j.cossms.2013.03.005
Na Fe 0.975 Co 0.025,{},"{'Na': 1, 'Fe': 0.975, 'Co': 0.025}",21.0,0.0,,,10.1016/j.cossms.2013.03.005
Sr Ti O 3,{},"{'Sr': 1, 'Ti': 1, 'O': 3}",49.0,0.0,,,10.1016/j.cossms.2013.03.005
Li Fe As,{},"{'Li': 1, 'Fe': 1, 'As': 1}",17.0,0.0,,,10.1016/j.cossms.2013.03.005
Fe Se,{},"{'Fe': 1, 'Se': 1}",9.3,0.0,,,10.1016/j.cossms.2013.03.005
Sr 0.75 K 0.25 Fe 2 As 2,{},"{'Sr': 0.75, 'K': 0.25, 'Fe': 2, 'As': 2}",32.0,0.0,,,10.1016/j.cossms.2013.03.005
Bi 2 Sr 2 Ca Cu 2 O 8+δ,{'δ': []},,82.0,0.0,,,
Sr 2 Ru O 4,{},"{'Sr': 2, 'Ru': 1, 'O': 4}",1.3,0.0,,,10.1103/physrevb.58.14484
Mo Te 2,{},"{'Mo': 1, 'Te': 2}",0.1,0.0,,,10.1002/qute.201800112
Nb As 2,{},"{'Nb': 1, 'As': 2}",2.63,12.8,,,10.1002/qute.201800112
Bi Te I,{},"{'Bi': 1, 'Te': 1, 'I': 1}",5.2,23.5,,,10.1002/qute.201800112
Fe Se,{},"{'Fe': 1, 'Se': 1}",77.0,0.0,"Monolayer, film",,10.1002/qute.201800112
Sb 2 Te 3,{},"{'Sb': 2, 'Te': 3}",3.0,4.0,,,10.1002/qute.201800112
Fe Se,{},"{'Fe': 1, 'Se': 1}",8.0,0.0,,,10.1002/qute.201800112
Cs 2 Cr 3 As 3,{},"{'Cs': 2, 'Cr': 3, 'As': 3}",2.2,0.0,,,10.1002/qute.201800112
Bi 2 Se 3,{},"{'Bi': 2, 'Se': 3}",2.85,0.0,,,10.1002/qute.201800112
(Pb Se) 5 (Bi 2 Se 3) 3,{},"{'Pb': 5, 'Se': 14, 'Bi': 6}",1.7,0.0,,,10.1002/qute.201800112
Na 2 Cr 3 As 3,{},"{'Na': 2, 'Cr': 3, 'As': 3}",8.6,0.0,,,10.1002/qute.201800112
Sr 2 Ru O 4,{},"{'Sr': 2, 'Ru': 1, 'O': 4}",1.0,0.0,,,10.1002/qute.201800112
Cu 0.3 Bi 2 Se 3,{},"{'Cu': 0.3, 'Bi': 2, 'Se': 3}",3.4,0.0,,,10.1002/qute.201800112
Rb 2 Cr 3 As 3,{},"{'Rb': 2, 'Cr': 3, 'As': 3}",4.8,0.0,,,10.1002/qute.201800112
Cu x Bi 2 Se 3,{'x': []},,3.8,0.0,,,10.1002/qute.201800112
Cd 3 As 2,{},"{'Cd': 3, 'As': 2}",2.0,8.5,,,10.1002/qute.201800112
Bi 2 Se 3,{},"{'Bi': 2, 'Se': 3}",3.2,0.0,,,10.1002/qute.201800112
K 2 Cr 3 As 3,{},"{'K': 2, 'Cr': 3, 'As': 3}",6.1,0.0,,,10.1002/qute.201800112
Cs Fe 2 As 2,{},"{'Cs': 1, 'Fe': 2, 'As': 2}",2.2,0.0,single crystal,,10.1103/physrevb.87.144502
Cs Fe 2 As 2,{},"{'Cs': 1, 'Fe': 2, 'As': 2}",1.81,0.0,single crystal,,10.1103/physrevb.87.144502
Cs Fe 2 As 2,{},"{'Cs': 1, 'Fe': 2, 'As': 2}",2.2,0.0,polycrystal,,10.1103/physrevb.87.144502
Tl 2 Ba 2 Cu O 6+δ,{'δ': []},,15.0,0.0,,,10.1103/physrevb.87.144502
Cs Fe 2 As 2,{},"{'Cs': 1, 'Fe': 2, 'As': 2}",2.6,0.0,,,10.1103/physrevb.87.144502
Ce Co In 5,{},"{'Ce': 1, 'Co': 1, 'In': 5}",2.3,0.0,,,10.1103/physrevlett.95.236402
Pu Co Ga 5,{},"{'Pu': 1, 'Co': 1, 'Ga': 5}",18.5,0.0,,,10.1103/physrevlett.95.236402
Pr Os 4 Sb 12,{},"{'Pr': 1, 'Os': 4, 'Sb': 12}",1.82,0.0,single crystals,,10.1103/physrevlett.90.117001
Mg B 2,{},"{'Mg': 1, 'B': 2}",39.0,0.0,,,10.1103/physrevlett.87.177008
C 2,{},{'C': 2},7.0,0.0,,,10.1038/ncomms8911
Ba 1-x K x Fe 2 As 2,{'x': []},,38.0,0.0,,,10.1038/ncomms8911
Mg B 2,{},"{'Mg': 1, 'B': 2}",39.0,0.0,,,10.1002/chin.200702273
Mg C Ni 3,{},"{'Mg': 1, 'C': 1, 'Ni': 3}",7.3,0.0,,,10.1002/chin.200702273
Pd Fe,{},"{'Pd': 1, 'Fe': 1}",9.0,0.0,,,10.1007/s100510050100
Fe Se,{},"{'Fe': 1, 'Se': 1}",8.0,0.0,,,10.1016/j.ssc.2010.01.002
Fe Se 0.5 Te 0.5,{},"{'Fe': 1, 'Se': 0.5, 'Te': 0.5}",14.0,0.0,,,10.1016/j.ssc.2010.01.002
Li 2 Pd 3 B,{},"{'Li': 2, 'Pd': 3, 'B': 1}",30.0,0.0,,,10.1103/physrevb.73.214528
Li 2 Pd 3 B,{},"{'Li': 2, 'Pd': 3, 'B': 1}",7.3,0.0,,,10.1103/physrevb.73.214528
Mg (B 0.8 C 0.2) 2,{},"{'Mg': 1, 'B': 1.6, 'C': 0.4}",22.0,0.0,,,10.1016/s0921-4534(02)02331-6
Mg B 2,{},"{'Mg': 1, 'B': 2}",20.0,0.0,,,10.1016/s0921-4534(02)02331-6
Mg B 2,{},"{'Mg': 1, 'B': 2}",22.0,0.0,,,10.1016/s0921-4534(02)02331-6
Mg B 2,{},"{'Mg': 1, 'B': 2}",40.0,0.0,,,10.1016/s0921-4534(02)02331-6
Bi,{},{'Bi': 1},10.0,0.0,single crystal,,10.1016/s0022-3697(98)00097-3
Fe Se,{},"{'Fe': 1, 'Se': 1}",8.0,0.0,,,10.1103/physrevb.93.020507
Mg B 2,{},"{'Mg': 1, 'B': 2}",37.0,0.0,,,
B 2 O 3,{},"{'B': 2, 'O': 3}",1.0,0.0,,,10.1016/j.physc.2012.07.006
Fe Se,{},"{'Fe': 1, 'Se': 1}",8.5,0.0,,,10.1103/physrevb.84.180508
K x Fe 2-y Se 2,"{'x': [], 'y': []}",,32.0,0.0,,,10.1103/physrevb.84.180508
Rb x Fe 2-y Se 2,"{'x': [], 'y': []}",,32.0,0.0,,,10.1103/physrevb.84.180508
Cs x Fe 2-y Se 2,"{'x': [], 'y': []}",,32.0,0.0,,,10.1103/physrevb.84.180508
Bi 2 Sr 2 Cu O 6,{},"{'Bi': 2, 'Sr': 2, 'Cu': 1, 'O': 6}",9.5,0.0,single crystal,,10.1103/physrevb.72.214514
Y 1-x Pr x Ba 2 Cu 3 O 7-δ,"{'δ': [], 'x': []}",,92.0,0.0,single crystals,,10.1103/physrevb.72.214514
Bi 2 Sr 2 Cu O 6,{},"{'Bi': 2, 'Sr': 2, 'Cu': 1, 'O': 6}",80.0,0.0,,,10.1103/physrevb.72.214514
Tl 2 Ba 2 Cu O 6+δ,{'δ': []},,80.0,0.0,,,10.1103/physrevb.72.214514
Ag 5 Pb 2 O 6,{},"{'Ag': 5, 'Pb': 2, 'O': 6}",52.4,0.0,,,10.1103/physrevb.72.180504
Lu B 12,{},"{'Lu': 1, 'B': 12}",0.4,0.0,,,10.1103/physrevb.78.134504
Zr B 12,{},"{'Zr': 1, 'B': 12}",6.0,0.0,,,10.1103/physrevb.78.134504
Lu B 12,{},"{'Lu': 1, 'B': 12}",0.42,0.0,,,10.1103/physrevb.78.134504
Lu B 12,{},"{'Lu': 1, 'B': 12}",0.9,0.0,,,10.1103/physrevb.78.134504
Zr B 12,{},"{'Zr': 1, 'B': 12}",0.42,0.0,,,10.1103/physrevb.78.134504
Lu B 12,{},"{'Lu': 1, 'B': 12}",0.44,0.0,,,10.1103/physrevb.78.134504
La B 6,{},"{'La': 1, 'B': 6}",0.1,0.0,,,10.1103/physrevb.78.134504
Y Ba 2 Cu 3 O 6.5,{},"{'Y': 1, 'Ba': 2, 'Cu': 3, 'O': 6.5}",59.0,0.0,,,10.1103/physrevb.77.104513
Y Ba 2 Cu 3 O 6.35,{},"{'Y': 1, 'Ba': 2, 'Cu': 3, 'O': 6.35}",18.0,0.0,,,10.1103/physrevb.77.104513
Pr 0.88 La Ce 0.12 Cu O 4-δ,{'δ': []},,21.0,0.0,,,10.1103/physrevb.77.104513
Ba Fe 2 (As 0.7 P 0.3) 2,{},"{'Ba': 1, 'Fe': 2, 'As': 1.4, 'P': 0.6}",30.0,0.0,,,10.1103/physrevb.96.180503
Pb,{},{'Pb': 1},47.0,0.0,,,
Fe Se,{},"{'Fe': 1, 'Se': 1}",65.0,0.0,,,
Fe Se,{},"{'Fe': 1, 'Se': 1}",92.0,0.0,,,
Fe Se,{},"{'Fe': 1, 'Se': 1}",8.0,0.0,thin flakes,,10.1103/physrevb.95.174513
Fe Se,{},"{'Fe': 1, 'Se': 1}",8.0,0.0,,,10.1103/physrevb.95.174513
Fe Se 0.5 Te 0.5,{},"{'Fe': 1, 'Se': 0.5, 'Te': 0.5}",40.0,0.0,,,10.1103/physrevb.95.174513
Fe Se Te 0.5,{},"{'Fe': 1, 'Se': 1, 'Te': 0.5}",14.0,0.0,,,10.1103/physrevb.95.174513
Y Ba 2 Cu 3 O 6+x,{'x': []},,93.0,0.0,,,
Fe Se,{},"{'Fe': 1, 'Se': 1}",8.0,0.0,,,10.1103/physrevb.98.064508
Cs x Rb y C 60,"{'x': [], 'y': []}",,37.0,0.0,,,
Cs 3 C 60,{},"{'Cs': 3, 'C': 60}",38.0,0.0,,,
Mg B 2,{},"{'Mg': 1, 'B': 2}",39.0,0.0,,,10.1088/0953-2048/17/10/l01
La Fe As O 1-x F x,{'x': [0.13]},"{'La': 1, 'Fe': 1, 'As': 1, 'O': 0.87, 'F': 0.13}",26.0,0.0,,,10.1143/jpsjs.77sc.15