Material,Substitutions,Composition,Tc (K),Pressure (GPa),Shape,Substrate,DOI
Lu 2 Fe 3 Si 5,{},"{'Lu': 2, 'Fe': 3, 'Si': 5}",6.1,0.0,,,10.1103/revmodphys.83.1589
Sm Fe As O 0.9 F 0.1,{},"{'Sm': 1, 'Fe': 1, 'As': 1, 'O': 0.9, 'F': 0.1}",55.0,0.0,,,10.1103/revmodphys.83.1589
Fe Se 0.4 Te 0.6,{},"{'Fe': 1, 'Se': 0.4, 'Te': 0.6}",14.5,0.0,single crystals,,10.1103/revmodphys.83.1589
Li Fe As,{},"{'Li': 1, 'Fe': 1, 'As': 1}",17.0,0.0,single crystal,,10.1103/revmodphys.83.1589
La Fe As O,{},"{'La': 1, 'Fe': 1, 'As': 1, 'O': 1}",26.0,0.0,,,10.1103/revmodphys.83.1589
F,{},{'F': 1},26.0,0.0,,,10.1103/revmodphys.83.1589
Ba 0.6 K 0.4 Fe 2 As 2,{},"{'Ba': 0.6, 'K': 0.4, 'Fe': 2, 'As': 2}",37.0,0.0,,,10.1103/revmodphys.83.1589
Rb Fe 2 As 2,{},"{'Rb': 1, 'Fe': 2, 'As': 2}",2.6,0.0,,,10.1103/revmodphys.83.1589
Na 1-δ Fe As 0.8 P 0.2,{'δ': []},,33.0,0.0,,,10.1103/revmodphys.83.1589
Fe 1+δ Te,{'δ': [0.03]},"{'Fe': 1.03, 'Te': 1}",8.5,0.0,,,10.1103/revmodphys.83.1589
Li Fe As,{},"{'Li': 1, 'Fe': 1, 'As': 1}",19.7,0.0,single crystal,,10.1103/revmodphys.83.1589
Sr 2 V O 3 Fe As,{},"{'Sr': 2, 'V': 1, 'O': 3, 'Fe': 1, 'As': 1}",36.0,4.0,,,10.1103/revmodphys.83.1589
Li Fe As,{},"{'Li': 1, 'Fe': 1, 'As': 1}",6.0,2.75,,,10.1103/revmodphys.83.1589
Ba Fe 2 As 2,{},"{'Ba': 1, 'Fe': 2, 'As': 2}",36.5,0.0,single crystal,,10.1103/revmodphys.83.1589
Ba 0.6 K 0.4 Fe 2 As 2,{},"{'Ba': 0.6, 'K': 0.4, 'Fe': 2, 'As': 2}",38.0,0.0,,,10.1103/revmodphys.83.1589
Y Ba 2 Cu 3 O 7-δ,{'δ': []},,93.0,0.0,,,10.1103/revmodphys.83.1589
Sr 2 Sc O 3 Fe P,{},"{'Sr': 2, 'Sc': 1, 'O': 3, 'Fe': 1, 'P': 1}",16.0,0.0,,,10.1103/revmodphys.83.1589
Sm Fe As O 0.85,{},"{'Sm': 1, 'Fe': 1, 'As': 1, 'O': 0.85}",55.0,0.0,,,10.1103/revmodphys.83.1589
Na 1-δ Fe 0.95 Co 0.05 As,{'δ': []},,19.0,0.0,single crystal,,10.1103/revmodphys.83.1589
Sr 2 V O 3 Fe As,{},"{'Sr': 2, 'V': 1, 'O': 3, 'Fe': 1, 'As': 1}",37.0,0.0,,,10.1103/revmodphys.83.1589
Fe Se,{},"{'Fe': 1, 'Se': 1}",37.0,7.0,,,10.1103/revmodphys.83.1589
Ba Fe 1.84 Co 0.16,{},"{'Ba': 1, 'Fe': 1.84, 'Co': 0.16}",24.0,0.0,,,10.1103/revmodphys.83.1589
Ba Fe 1.92 Ni 0.08 As 2,{},"{'Ba': 1, 'Fe': 1.92, 'Ni': 0.08, 'As': 2}",17.0,0.0,,,10.1103/revmodphys.83.1589
Sr 2 Mg 0.2 Ti 0.8 O 3 Fe As,{},"{'Sr': 2, 'Mg': 0.2, 'Ti': 0.8, 'O': 3, 'Fe': 1, 'As': 1}",17.0,0.0,,,10.1103/revmodphys.83.1589
Li Fe As,{},"{'Li': 1, 'Fe': 1, 'As': 1}",18.0,0.0,single crystal,,10.1103/revmodphys.83.1589
Ba Fe 1.9 Ni 0.1 As 2,{},"{'Ba': 1, 'Fe': 1.9, 'Ni': 0.1, 'As': 2}",20.0,0.0,,,10.1103/revmodphys.83.1589
Sr Fe 2 As 2,{},"{'Sr': 1, 'Fe': 2, 'As': 2}",25.0,0.0,"films, single crystal",700 o C LSAT,10.1103/revmodphys.83.1589
Ba 1-x K x Fe 2 As 2,{'x': []},,38.0,0.0,,,10.1103/revmodphys.83.1589
La Fe 0.92 Co 0.08 As O,{},"{'La': 1, 'Fe': 0.92, 'Co': 0.08, 'As': 1, 'O': 1}",9.0,0.0,Single crystal,,10.1103/revmodphys.83.1589
Ba Fe 2-x Ni x As 2,{'x': []},,18.9,0.0,,,10.1103/revmodphys.83.1589
Sr Fe 1.75 Co 0.25 As 2,{},"{'Sr': 1, 'Fe': 1.75, 'Co': 0.25, 'As': 2}",13.0,0.0,,,10.1103/revmodphys.83.1589
Ba (Fe 0.95 Pt 0.05) 2 As 2,{},"{'Ba': 1, 'Fe': 1.9, 'Pt': 0.1, 'As': 2}",20.0,0.0,,,10.1103/revmodphys.83.1589
Gd 0.8 Th 0.2 Fe As O,{},"{'Gd': 0.8, 'Th': 0.2, 'Fe': 1, 'As': 1, 'O': 1}",56.0,0.0,Polycrystalline,,10.1103/revmodphys.83.1589
Fe Te x Se 1-x,{'x': [0.11]},"{'Fe': 1, 'Te': 0.11, 'Se': 0.89}",11.0,0.0,,,10.1103/revmodphys.83.1589
Li Fe As,{},"{'Li': 1, 'Fe': 1, 'As': 1}",18.0,0.0,,,10.1103/revmodphys.83.1589
Fe Se,{},"{'Fe': 1, 'Se': 1}",0.6,0.0,,,10.1103/revmodphys.83.1589
Sr Fe 1.7 Rh 0.3 As 2,{},"{'Sr': 1, 'Fe': 1.7, 'Rh': 0.3, 'As': 2}",21.0,0.0,,,10.1103/revmodphys.83.1589
Sr 2 Mg 0.3 Ti 0.7 O 3 Fe As,{},"{'Sr': 2, 'Mg': 0.3, 'Ti': 0.7, 'O': 3, 'Fe': 1, 'As': 1}",37.0,4.2,,,10.1103/revmodphys.83.1589
Fe Se,{},"{'Fe': 1, 'Se': 1}",8.0,0.0,,,10.1103/revmodphys.83.1589
Ba 1-x K x Fe 2 As 2,{'x': []},,3.4,0.0,,,10.1103/revmodphys.83.1589
Li Fe P,{},"{'Li': 1, 'Fe': 1, 'P': 1}",6.0,0.0,,,10.1103/revmodphys.83.1589
Ba Fe 1.9 Ni 0.1 As 2,{},"{'Ba': 1, 'Fe': 1.9, 'Ni': 0.1, 'As': 2}",20.3,0.0,single crystal,,10.1103/revmodphys.83.1589
K Fe 2 As 2,{},"{'K': 1, 'Fe': 2, 'As': 2}",3.5,0.0,,,10.1103/revmodphys.83.1589
Cs 0.8 Fe 2 Se 2,{},"{'Cs': 0.8, 'Fe': 2, 'Se': 2}",27.4,0.0,single crystals,,10.1103/revmodphys.83.1589
Fe Se 1-y,{'y': []},,8.0,0.0,,,10.1103/revmodphys.83.1589
Tl Fe 1.7 Se 2,{},"{'Tl': 1, 'Fe': 1.7, 'Se': 2}",20.0,0.0,,,10.1103/revmodphys.83.1589
Ba (Fe 0.92 Co 0.08) 2 As 2,{},"{'Ba': 1, 'Fe': 1.84, 'Co': 0.16, 'As': 2}",25.0,0.0,,,10.1103/revmodphys.83.1589
Fe Se 0.88,{},"{'Fe': 1, 'Se': 0.88}",8.0,0.0,,,10.1103/revmodphys.83.1589
Sr Ti O 3,{},"{'Sr': 1, 'Ti': 1, 'O': 3}",17.0,0.0,,,10.1103/revmodphys.83.1589
La Fe As O 0.92 F 0.08,{},"{'La': 1, 'Fe': 1, 'As': 1, 'O': 0.92, 'F': 0.08}",26.0,0.0,,,10.1103/revmodphys.83.1589
Nd Fe As O 0.8 F 0.2,{},"{'Nd': 1, 'Fe': 1, 'As': 1, 'O': 0.8, 'F': 0.2}",50.0,0.0,,,10.1103/revmodphys.83.1589
La Fe As O 1-x F x,{'x': []},,26.0,0.0,,,10.1103/revmodphys.83.1589
K 0.8 Fe 2-y Se 1.01 S 0.99,{'y': []},,21.4,0.0,,,10.1103/revmodphys.83.1589
Na 1-δ Fe 0.975 Co 0.025,{'δ': []},,21.0,0.0,,,10.1103/revmodphys.83.1589
Sm Fe As O 0.85,{},"{'Sm': 1, 'Fe': 1, 'As': 1, 'O': 0.85}",53.5,0.0,,,10.1103/revmodphys.83.1589
Sr (Fe 0.92 Pt 0.08) 2 As 2,{},"{'Sr': 1, 'Fe': 1.84, 'Pt': 0.16, 'As': 2}",14.5,0.0,single crystal,,10.1103/revmodphys.83.1589
Fe Se 0.5 Te 0.5,{},"{'Fe': 1, 'Se': 0.5, 'Te': 0.5}",14.0,0.0,,,10.1103/revmodphys.83.1589
Sr Fe 2 As 2,{},"{'Sr': 1, 'Fe': 2, 'As': 2}",27.0,3.2,,,10.1103/revmodphys.83.1589
La Fe P O,{},"{'La': 1, 'Fe': 1, 'P': 1, 'O': 1}",5.0,0.0,,,10.1103/revmodphys.83.1589
Pr Fe As O 0.7,{},"{'Pr': 1, 'Fe': 1, 'As': 1, 'O': 0.7}",35.0,0.0,single crystal,,10.1103/revmodphys.83.1589
Hg Ba 2 Ca 2 Cu 3 O 8,{},"{'Hg': 1, 'Ba': 2, 'Ca': 2, 'Cu': 3, 'O': 8}",133.0,0.0,,,10.1103/revmodphys.83.1589
Ce Co In 5,{},"{'Ce': 1, 'Co': 1, 'In': 5}",0.63,0.0,,,10.1103/revmodphys.83.1589
Nd Fe As O 0.85,{},"{'Nd': 1, 'Fe': 1, 'As': 1, 'O': 0.85}",53.5,0.0,,,10.1103/revmodphys.83.1589
Sr 2 Sc O 3 Fe P,{},"{'Sr': 2, 'Sc': 1, 'O': 3, 'Fe': 1, 'P': 1}",17.0,0.0,,,10.1103/revmodphys.83.1589
La Fe As O 0.89 F 0.11,{},"{'La': 1, 'Fe': 1, 'As': 1, 'O': 0.89, 'F': 0.11}",43.0,4.0,,,10.1103/revmodphys.83.1589
Ba 0.72 K 0.28 Fe 2 As 2,{},"{'Ba': 0.72, 'K': 0.28, 'Fe': 2, 'As': 2}",31.5,0.0,single crystal,,10.1103/revmodphys.83.1589
K x Fe 2-y Se 2,"{'x': [], 'y': []}",,32.0,0.0,single crystals,,10.1103/revmodphys.83.1589
K 0.8 Fe 1.7 Co 0.01 Se 2,{},"{'K': 0.8, 'Fe': 1.7, 'Co': 0.01, 'Se': 2}",5.0,0.0,,,10.1103/revmodphys.83.1589
Sr 2 Mg 0.2 Ti 0.8 O 3 Fe As,{},"{'Sr': 2, 'Mg': 0.2, 'Ti': 0.8, 'O': 3, 'Fe': 1, 'As': 1}",39.0,0.0,,,10.1103/revmodphys.83.1589
Li Fe 0.95 Co 0.05 As,{},"{'Li': 1, 'Fe': 0.95, 'Co': 0.05, 'As': 1}",8.0,0.0,single crystal,,10.1103/revmodphys.83.1589
La Fe As O 0.9 F 0.1,{},"{'La': 1, 'Fe': 1, 'As': 1, 'O': 0.9, 'F': 0.1}",26.0,0.0,,,10.1103/revmodphys.83.1589
Fe Te,{},"{'Fe': 1, 'Te': 1}",13.0,0.0,films,,10.1103/revmodphys.83.1589
Ba Fe 1.8 Co 0.2 As 2,{},"{'Ba': 1, 'Fe': 1.8, 'Co': 0.2, 'As': 2}",22.0,0.0,,,10.1103/revmodphys.83.1589
U 6 Fe,{},"{'U': 6, 'Fe': 1}",3.9,0.0,,,10.1103/revmodphys.83.1589
Ba 1-x K x Fe 2 As 2,{'x': []},,38.0,0.0,polycrystalline,,10.1103/revmodphys.83.1589
Fe Se,{},"{'Fe': 1, 'Se': 1}",18.0,0.0,,,10.1103/revmodphys.83.1589
K 0.8 Fe 2-y Se 2,{'y': []},,32.0,0.0,single crystals,,10.1103/revmodphys.83.1589
Ba Fe 2 As 2,{},"{'Ba': 1, 'Fe': 2, 'As': 2}",38.0,0.0,,,10.1103/revmodphys.83.1589
Fe Se 0.43 Te 0.57,{},"{'Fe': 1, 'Se': 0.43, 'Te': 0.57}",14.2,0.0,single crystal,,10.1103/revmodphys.83.1589
Pr Fe As O 0.89 F 0.11,{},"{'Pr': 1, 'Fe': 1, 'As': 1, 'O': 0.89, 'F': 0.11}",45.0,0.0,,,10.1103/revmodphys.83.1589
Li Fe As,{},"{'Li': 1, 'Fe': 1, 'As': 1}",17.0,0.0,,,10.1103/revmodphys.83.1589
K Fe 2 As 2,{},"{'K': 1, 'Fe': 2, 'As': 2}",3.4,0.0,,,10.1103/revmodphys.83.1589
K 0.8 Fe 1.6 Se 2,{},"{'K': 0.8, 'Fe': 1.6, 'Se': 2}",37.0,0.0,,,10.1103/revmodphys.83.1589
Rb 0.8 Fe 1.6 Se 2,{},"{'Rb': 0.8, 'Fe': 1.6, 'Se': 2}",37.0,0.0,,,10.1103/revmodphys.83.1589
Cs 0.8 Fe 1.6 Se 2,{},"{'Cs': 0.8, 'Fe': 1.6, 'Se': 2}",37.0,0.0,,,10.1103/revmodphys.83.1589
Tl 0.8 Fe 1.6 Se 2,{},"{'Tl': 0.8, 'Fe': 1.6, 'Se': 2}",37.0,0.0,,,10.1103/revmodphys.83.1589
Sr 2 V O 3 Fe As,{},"{'Sr': 2, 'V': 1, 'O': 3, 'Fe': 1, 'As': 1}",33.0,0.0,,,10.1103/revmodphys.83.1589
Ho Ni 2 B 2 C,{},"{'Ho': 1, 'Ni': 2, 'B': 2, 'C': 1}",7.6,0.0,,,10.1103/revmodphys.83.1589
Ba 0.5 K 0.5 Fe 2 As 2,{},"{'Ba': 0.5, 'K': 0.5, 'Fe': 2, 'As': 2}",38.0,0.0,,,10.1103/revmodphys.83.1589
Na 1-δ Fe As,{'δ': []},,23.0,0.0,,,10.1103/revmodphys.83.1589
Li Fe As,{},"{'Li': 1, 'Fe': 1, 'As': 1}",8.0,11.0,,,10.1103/revmodphys.83.1589
La Fe As O 1-x F x,{'x': []},,28.0,0.0,polycrystalline films,,10.1103/revmodphys.83.1589
La Fe P O,{},"{'La': 1, 'Fe': 1, 'P': 1, 'O': 1}",6.0,0.0,,,10.1103/revmodphys.83.1589
La Fe As O 0.6,{},"{'La': 1, 'Fe': 1, 'As': 1, 'O': 0.6}",28.0,0.0,,,10.1103/revmodphys.83.1589
Ca Fe 2 As 2,{},"{'Ca': 1, 'Fe': 2, 'As': 2}",12.0,0.5,,,10.1103/revmodphys.83.1589
K 0.8 Fe 1.7 Se 2,{},"{'K': 0.8, 'Fe': 1.7, 'Se': 2}",32.0,1.0,,,10.1103/revmodphys.83.1589
Nd Fe As O 0.6,{},"{'Nd': 1, 'Fe': 1, 'As': 1, 'O': 0.6}",53.0,18.0,,,10.1103/revmodphys.83.1589
Tl 0.5 K 0.3 Fe 1.6 Se 2,{},"{'Tl': 0.5, 'K': 0.3, 'Fe': 1.6, 'Se': 2}",29.0,0.0,,,10.1103/revmodphys.83.1589
Ba 0.55 K 0.45 Fe 2 As 2,{},"{'Ba': 0.55, 'K': 0.45, 'Fe': 2, 'As': 2}",28.0,0.0,,,10.1103/revmodphys.83.1589
Ce Co In 5,{},"{'Ce': 1, 'Co': 1, 'In': 5}",2.25,0.0,,,10.1103/revmodphys.83.1589
Sr Fe 2 As 2,{},"{'Sr': 1, 'Fe': 2, 'As': 2}",34.0,4.0,,,10.1103/revmodphys.83.1589
Eu 0.5 K 0.5 Fe 2 As 2,{},"{'Eu': 0.5, 'K': 0.5, 'Fe': 2, 'As': 2}",32.0,0.0,polycrystalline,,10.1103/revmodphys.83.1589
I I B 3,{},"{'I': 2, 'B': 3}",47.0,0.0,,,10.1103/revmodphys.83.1589
Na 1-δ Fe As,{'δ': []},,15.0,0.0,single crystal,,10.1103/revmodphys.83.1589
Sm Fe As O 1-y,{'y': []},,54.0,0.0,,,10.1103/revmodphys.83.1589
Fe Se 0.48 Te 0.52,{},"{'Fe': 1, 'Se': 0.48, 'Te': 0.52}",13.5,0.0,,,10.1103/revmodphys.83.1589
Ce Ir In 5,{},"{'Ce': 1, 'Ir': 1, 'In': 5}",0.4,0.0,,,10.1103/revmodphys.83.1589
Ba 0.68 K 0.32 Fe 2 As 2,{},"{'Ba': 0.68, 'K': 0.32, 'Fe': 2, 'As': 2}",38.5,0.0,,,10.1103/revmodphys.83.1589
Ca Fe As F,{},"{'Ca': 1, 'Fe': 1, 'As': 1, 'F': 1}",22.0,0.0,,,10.1103/revmodphys.83.1589
Ba 0.6 K 0.4 Fe 2 As 2,{},"{'Ba': 0.6, 'K': 0.4, 'Fe': 2, 'As': 2}",40.0,0.0,,,10.1103/revmodphys.83.1589
U Be 13,{},"{'U': 1, 'Be': 13}",0.94,0.0,,,10.1103/revmodphys.83.1589
Ba 0.6 K 0.4 Fe 2 As 2,{},"{'Ba': 0.6, 'K': 0.4, 'Fe': 2, 'As': 2}",34.7,0.0,single crystal,,10.1103/revmodphys.83.1589
Fe Se 0.48 Te 0.52,{},"{'Fe': 1, 'Se': 0.48, 'Te': 0.52}",15.0,0.0,single crystal,,10.1103/revmodphys.83.1589
Sm Fe As O 0.85 F 0.15,{},"{'Sm': 1, 'Fe': 1, 'As': 1, 'O': 0.85, 'F': 0.15}",41.0,0.0,,,10.1103/revmodphys.83.1589
Fe Se 1-x Te x,{'x': [0.43]},"{'Fe': 1, 'Se': 0.5700000000000001, 'Te': 0.43}",15.0,0.0,,,10.1103/revmodphys.83.1589
Tl 0.5 Rb 0.3 Fe 1.6 Se 2,{},"{'Tl': 0.5, 'Rb': 0.3, 'Fe': 1.6, 'Se': 2}",31.0,0.0,,,10.1103/revmodphys.83.1589
Sr Fe As F,{},"{'Sr': 1, 'Fe': 1, 'As': 1, 'F': 1}",4.0,0.0,,,10.1103/revmodphys.83.1589
Nd Fe As O 0.9 F 0.1,{},"{'Nd': 1, 'Fe': 1, 'As': 1, 'O': 0.9, 'F': 0.1}",36.0,0.0,,,10.1103/revmodphys.83.1589
Li Fe 1-x (Co Ni) x As,{'x': []},,10.0,0.0,,,10.1103/revmodphys.83.1589
Eu Fe 2 As 2,{},"{'Eu': 1, 'Fe': 2, 'As': 2}",22.0,2.0,,,10.1103/revmodphys.83.1589
Pr Fe As O 0.9,{},"{'Pr': 1, 'Fe': 1, 'As': 1, 'O': 0.9}",35.0,0.0,single crystal,,10.1103/revmodphys.83.1589
Sr 2 V O 3 Fe As,{},"{'Sr': 2, 'V': 1, 'O': 3, 'Fe': 1, 'As': 1}",33.0,0.0,polycrystalline,,10.1103/revmodphys.83.1589
Rb 0.8 Fe 2 Se 2,{},"{'Rb': 0.8, 'Fe': 2, 'Se': 2}",31.0,0.0,single crystal,,10.1103/revmodphys.83.1589
Ba Fe 1.8 Co 0.2 As 2,{},"{'Ba': 1, 'Fe': 1.8, 'Co': 0.2, 'As': 2}",19.0,0.0,single crystals,,10.1103/revmodphys.83.1589
Li Fe As,{},"{'Li': 1, 'Fe': 1, 'As': 1}",19.0,0.0,single crystal,,10.1103/revmodphys.83.1589
Cs 0.8 Fe 2 Se 2,{},"{'Cs': 0.8, 'Fe': 2, 'Se': 2}",30.0,1.0,,,10.1103/revmodphys.83.1589
Nd Fe As O 0.82 F 0.18,{},"{'Nd': 1, 'Fe': 1, 'As': 1, 'O': 0.82, 'F': 0.18}",52.0,0.0,single crystal,,10.1103/revmodphys.83.1589
Fe Se 1-x,{'x': []},,8.2,0.0,,,10.1103/revmodphys.83.1589
K Fe 2 As 2,{},"{'K': 1, 'Fe': 2, 'As': 2}",10.0,0.0,,,10.1103/revmodphys.83.1589
Nd Fe 0.95 Co 0.05 As O,{},"{'Nd': 1, 'Fe': 0.95, 'Co': 0.05, 'As': 1, 'O': 1}",25.0,0.0,Single crystal,,10.1103/revmodphys.83.1589
Sr Fe 2 As 2,{},"{'Sr': 1, 'Fe': 2, 'As': 2}",20.0,0.0,films,,10.1103/revmodphys.83.1589
Fe Se 0.5 Te 0.5,{},"{'Fe': 1, 'Se': 0.5, 'Te': 0.5}",15.0,0.0,films,,10.1103/revmodphys.83.1589
Na 1-δ Fe As,{'δ': []},,26.0,3.0,,,10.1103/revmodphys.83.1589
Ce Cu 2 Si 2,{},"{'Ce': 1, 'Cu': 2, 'Si': 2}",2.25,0.0,,,10.1103/revmodphys.83.1589
Mg 0.2 Ti 0.8,{},"{'Mg': 0.2, 'Ti': 0.8}",39.0,0.0,,,10.1103/revmodphys.83.1589
Sm Fe As O 0.85 F 0.15,{},"{'Sm': 1, 'Fe': 1, 'As': 1, 'O': 0.85, 'F': 0.15}",43.0,0.0,,,10.1103/revmodphys.83.1589
K 0.8 Fe 1.6 Se 2,{},"{'K': 0.8, 'Fe': 1.6, 'Se': 2}",32.0,0.0,single crystals,,10.1103/revmodphys.83.1589
La Fe P O,{},"{'La': 1, 'Fe': 1, 'P': 1, 'O': 1}",7.4,0.0,single crystal,,10.1103/revmodphys.83.1589
La Fe P O,{},"{'La': 1, 'Fe': 1, 'P': 1, 'O': 1}",5.8,0.0,,,10.1103/revmodphys.83.1589
Fe 2 Se 2,{},"{'Fe': 2, 'Se': 2}",30.0,0.0,,,10.1103/revmodphys.83.1589
La Fe O 0.89 F 0.11,{},"{'La': 1, 'Fe': 1, 'O': 0.89, 'F': 0.11}",28.0,0.0,polycrystalline,,10.1103/revmodphys.83.1589
Rb 0.8 Fe 2 As 2,{},"{'Rb': 0.8, 'Fe': 2, 'As': 2}",31.0,0.0,single crystals,,10.1103/revmodphys.83.1589
Ba 0.5 K 0.5 Fe 2 As 2,{},"{'Ba': 0.5, 'K': 0.5, 'Fe': 2, 'As': 2}",36.0,0.0,polycrystalline,,10.1103/revmodphys.83.1589
K x Fe y Se 2,"{'x': [], 'y': []}",,47.0,0.0,,,10.1103/revmodphys.83.1589
Fe Se,{},"{'Fe': 1, 'Se': 1}",27.0,2.6,,,10.1103/revmodphys.83.1589
Li Fe P,{},"{'Li': 1, 'Fe': 1, 'P': 1}",4.0,0.0,,,10.1103/revmodphys.83.1589
Nd Fe As O 0.8,{},"{'Nd': 1, 'Fe': 1, 'As': 1, 'O': 0.8}",41.0,0.0,,,10.1103/revmodphys.83.1589
Li Fe As,{},"{'Li': 1, 'Fe': 1, 'As': 1}",17.5,0.0,single crystals,,10.1103/revmodphys.83.1589
K 0.8 Fe 1.6 Se 2,{},"{'K': 0.8, 'Fe': 1.6, 'Se': 2}",32.0,0.0,,,10.1103/revmodphys.83.1589
Fe Se 0.5 Te 0.5,{},"{'Fe': 1, 'Se': 0.5, 'Te': 0.5}",15.0,0.0,single crystal,,10.1103/revmodphys.83.1589
Ca Fe 2 As 2,{},"{'Ca': 1, 'Fe': 2, 'As': 2}",13.0,0.69,,,10.1103/revmodphys.83.1589
K Fe 2 As 2,{},"{'K': 1, 'Fe': 2, 'As': 2}",3.4,0.0,crystals,,10.1103/revmodphys.83.1589
La Fe P O,{},"{'La': 1, 'Fe': 1, 'P': 1, 'O': 1}",5.9,0.0,,,10.1103/revmodphys.83.1589
Ca 0.5 Na 0.5 Fe 2 As 2,{},"{'Ca': 0.5, 'Na': 0.5, 'Fe': 2, 'As': 2}",18.0,0.0,,,10.1103/revmodphys.83.1589
Fe Se 0.9,{},"{'Fe': 1, 'Se': 0.9}",11.0,0.0,,,10.1103/revmodphys.83.1589
La 2 Cu O 4,{},"{'La': 2, 'Cu': 1, 'O': 4}",35.0,0.0,,,10.1103/revmodphys.83.1589
Sr 0.6 La 0.4 Fe As F,{},"{'Sr': 0.6, 'La': 0.4, 'Fe': 1, 'As': 1, 'F': 1}",32.0,0.0,,,10.1103/revmodphys.83.1589
Sr Fe As F,{},"{'Sr': 1, 'Fe': 1, 'As': 1, 'F': 1}",32.0,0.0,,,10.1103/revmodphys.83.1589
La Fe As O 0.92 F 0.08,{},"{'La': 1, 'Fe': 1, 'As': 1, 'O': 0.92, 'F': 0.08}",23.0,0.0,,,10.1103/revmodphys.83.1589
Y Ba 2 (Cu 0.98 Zn 0.02) 3 O 7,{},"{'Y': 1, 'Ba': 2, 'Cu': 2.94, 'Zn': 0.06, 'O': 7}",65.0,0.0,,,10.1103/revmodphys.83.1589
Sr (Fe 0.925 Ni 0.075) 2 As 2,{},"{'Sr': 1, 'Fe': 1.85, 'Ni': 0.15, 'As': 2}",8.5,0.0,,,10.1103/revmodphys.83.1589
Ba 0.86 K 0.14 Fe 2 As 2,{},"{'Ba': 0.86, 'K': 0.14, 'Fe': 2, 'As': 2}",20.0,0.0,single crystal,,10.1103/revmodphys.83.1589
Ba Fe 2 As 2,{},"{'Ba': 1, 'Fe': 2, 'As': 2}",21.5,0.0,thin films,,10.1103/revmodphys.83.1589
Sr Fe 1.8 Co 0.2 As 2,{},"{'Sr': 1, 'Fe': 1.8, 'Co': 0.2, 'As': 2}",17.1,0.0,epitaxial films,,10.1103/revmodphys.83.1589
Ba Fe 2 (As 0.7 P 0.3) 2,{},"{'Ba': 1, 'Fe': 2, 'As': 1.4, 'P': 0.6}",30.0,0.0,single crystal,,10.1103/revmodphys.83.1589
Nd Fe As O 0.9 F 0.1,{},"{'Nd': 1, 'Fe': 1, 'As': 1, 'O': 0.9, 'F': 0.1}",53.0,0.0,,,10.1103/revmodphys.83.1589
K Fe 2 As 2,{},"{'K': 1, 'Fe': 2, 'As': 2}",4.0,0.0,,,10.1103/revmodphys.83.1589
As,{},{'As': 1},0.5,0.0,,,10.1103/revmodphys.83.1589
Ba Fe 2 As 2,{},"{'Ba': 1, 'Fe': 2, 'As': 2}",29.0,4.5,,,10.1103/revmodphys.83.1589
La Fe As O,{},"{'La': 1, 'Fe': 1, 'As': 1, 'O': 1}",26.0,4.0,,,10.1103/revmodphys.83.1589
Rb 0.8 Fe 1.6 Se 2,{},"{'Rb': 0.8, 'Fe': 1.6, 'Se': 2}",32.0,0.0,,,10.1103/revmodphys.83.1589
Cs 0.8 Fe 1.6 Se 2,{},"{'Cs': 0.8, 'Fe': 1.6, 'Se': 2}",32.0,0.0,,,10.1103/revmodphys.83.1589
Tl 0.8 Fe 1.6 Se 2,{},"{'Tl': 0.8, 'Fe': 1.6, 'Se': 2}",32.0,0.0,,,10.1103/revmodphys.83.1589
Bi 2 Sr 2 Ca Cu 2 O 8+y,{'y': []},,90.0,0.0,crystal,,
Nd Co As O,{},"{'Nd': 1, 'Co': 1, 'As': 1, 'O': 1}",13.0,0.0,,,10.1103/physrevb.81.104405
La Fe As O 1-x F x,{'x': []},,28.0,0.0,,,10.1103/physrevb.81.104405
Nb 3 Sn,{},"{'Nb': 3, 'Sn': 1}",38.0,0.0,,,10.1038/35065559
Bi 2 Sr 2 Ca Cu 2 O 8+δ,{'δ': []},,82.5,0.0,single crystals,,10.1103/physrevlett.84.2945
Bi 2 Sr 2 Ca Cu 2 O 8+δ,{'δ': []},,40.0,0.0,,,10.1103/physrevlett.84.2945
Bi 2 Sr 2 Ca Cu 2 O 8,{},"{'Bi': 2, 'Sr': 2, 'Ca': 1, 'Cu': 2, 'O': 8}",87.0,0.0,,,10.1016/s0368-2048(01)00251-1
Bi 2 Sr 2 Ca Cu 2 O 8,{},"{'Bi': 2, 'Sr': 2, 'Ca': 1, 'Cu': 2, 'O': 8}",91.0,0.0,,,10.1016/s0368-2048(01)00251-1
Y Ba 2 Cu 3 O x,{'x': []},,2.5,0.0,,,10.1103/physrevlett.79.4894
Hg Ba 2 Cu O 4,{},"{'Hg': 1, 'Ba': 2, 'Cu': 1, 'O': 4}",100.0,0.0,,,10.7566/jpsj.86.114706
C 7,{},{'C': 7},1.5,0.0,,,10.1016/s0921-4534(03)01296-6
Sr 0.6 K 0.4 Fe 2 As 2,{},"{'Sr': 0.6, 'K': 0.4, 'Fe': 2, 'As': 2}",34.0,0.0,,,10.1016/j.physc.2009.12.030
La Fe As O 1-x F x,{'x': []},,55.0,0.0,,,10.1016/j.physc.2009.12.030
Ba 1-x K x Fe 2 As 2,{'x': []},,38.0,0.0,,,10.1016/j.physc.2009.12.030
Sr 1-x K x Fe 2 As 2,{'x': []},,38.0,0.0,,,10.1016/j.physc.2009.12.030
Mg B 2,{},"{'Mg': 1, 'B': 2}",40.0,0.0,,,10.1016/j.physleta.2016.08.013
Fe Se,{},"{'Fe': 1, 'Se': 1}",8.0,0.0,,,10.1103/physrevlett.107.167002
K Fe x Se 2,{'x': []},,30.0,0.0,,,10.1103/physrevlett.107.167002
Tl Fe x Se 2,{'x': []},,30.0,0.0,,,10.1103/physrevlett.107.167002
Cs Fe x Se 2,{'x': []},,30.0,0.0,,,10.1103/physrevlett.107.167002
Fe Se,{},"{'Fe': 1, 'Se': 1}",8.0,0.0,,,10.1088/0953-2048/28/6/065009
Fe Te 0.5 Se 0.5,{},"{'Fe': 1, 'Te': 0.5, 'Se': 0.5}",14.0,0.0,,,10.1088/0953-2048/28/6/065009
Li 0.8 Fe 0.2 O H Fe Se,{},"{'Li': 0.8, 'Fe': 1.2, 'O': 1, 'H': 1, 'Se': 1}",36.0,0.0,,,10.7566/jpsj.88.034703
Bi 2 Sr 2 Ca Cu 2 O 8-x,{'x': []},,90.0,0.0,,,10.1103/physrevlett.81.902
Fe Se,{},"{'Fe': 1, 'Se': 1}",8.0,0.0,,,10.1103/physrevlett.117.077003
Ba 0.6 K 0.4 Fe 2 As 2,{},"{'Ba': 0.6, 'K': 0.4, 'Fe': 2, 'As': 2}",37.0,0.0,,,10.1103/physrevlett.105.027005
Ca F 2,{},"{'Ca': 1, 'F': 2}",27.0,0.0,,,10.1063/1.4801312
Ba Fe 1.84 Co 0.16 As 2,{},"{'Ba': 1, 'Fe': 1.84, 'Co': 0.16, 'As': 2}",23.7,0.0,,,10.1063/1.4801312
Ca F 2,{},"{'Ca': 1, 'F': 2}",28.0,0.0,,,10.1063/1.4801312
Cd 2 Re 2 O 7,{},"{'Cd': 2, 'Re': 2, 'O': 7}",1.1,0.0,,,10.1088/0953-8984/13/33/105
Re,{},{'Re': 1},1.7,0.0,,,10.1088/0953-8984/13/33/105
Ba Fe 2 S 3,{},"{'Ba': 1, 'Fe': 2, 'S': 3}",14.0,10.0,,,
La O Fe P,{},"{'La': 1, 'O': 1, 'Fe': 1, 'P': 1}",50.0,0.0,,,10.1209/0295-5075/88/17004
La O 1-x F x Fe As,{'x': []},,50.0,0.0,,,10.1209/0295-5075/88/17004
S,{},{'S': 1},15.0,0.0,,,10.1088/0953-8984/24/38/386006
Ba Fe 1.84 Co 0.16 As 2,{},"{'Ba': 1, 'Fe': 1.84, 'Co': 0.16, 'As': 2}",22.0,0.0,,,10.1038/nphys1426
Ba Fe 1.9 Ni 0.1 As 2,{},"{'Ba': 1, 'Fe': 1.9, 'Ni': 0.1, 'As': 2}",20.0,0.0,,,10.1038/nphys1426
C 6 Li,{},"{'C': 6, 'Li': 1}",8.41,0.0,,,10.1088/2053-1583/1/2/021005
C Li,{},"{'C': 1, 'Li': 1}",13.54,0.0,,,10.1088/2053-1583/1/2/021005
C 6 Li,{},"{'C': 6, 'Li': 1}",10.88,0.0,,,10.1088/2053-1583/1/2/021005
Fe Se,{},"{'Fe': 1, 'Se': 1}",90.0,0.0,,,10.1038/s41535-020-0211-y
Bi 2 Sr 1.65 La 0.35 Cu O 6,{},"{'Bi': 2, 'Sr': 1.65, 'La': 0.35, 'Cu': 1, 'O': 6}",29.0,0.0,,,
La 2-x Ba x Cu O 4,{'x': []},,50.0,0.0,,,
Nb 3 Ge,{},"{'Nb': 3, 'Ge': 1}",23.2,0.0,,,
Y Ba 2 Cu 3 O 7-y,{'y': []},,40.0,0.0,,,
La 2 Cu O 4+y,{'y': []},,40.0,0.0,,,