Material,Substitutions,Composition,Tc (K),Pressure (GPa),Shape,Substrate,DOI
Sm Fe As O,{},"{'Sm': 1, 'Fe': 1, 'As': 1, 'O': 1}",55.0,0.0,,,10.1103/physrevb.86.134523
Ce Fe As 0.7 P 0.3 O,{},"{'Ce': 1, 'Fe': 1, 'As': 0.7, 'P': 0.3, 'O': 1}",4.1,0.0,,,10.1103/physrevb.86.134523
Ce Fe As 0.65 P 0.35 O,{},"{'Ce': 1, 'Fe': 1, 'As': 0.65, 'P': 0.35, 'O': 1}",4.3,0.0,,,10.1103/physrevb.86.134523
Ce Fe As 0.65 P 0.35 O,{},"{'Ce': 1, 'Fe': 1, 'As': 0.65, 'P': 0.35, 'O': 1}",3.7,0.29,,,10.1103/physrevb.86.134523
La Fe P O,{},"{'La': 1, 'Fe': 1, 'P': 1, 'O': 1}",3.0,0.0,,,10.1103/physrevlett.101.087004
La Fe As O 1-x F x,{'x': [0.11]},"{'La': 1, 'Fe': 1, 'As': 1, 'O': 0.89, 'F': 0.11}",26.0,0.0,,,10.1103/physrevlett.101.087004
La Fe As O 1-x F x,{'x': []},,7.0,0.0,,,10.1103/physrevlett.101.087004
La 1.85 Sr 0.15 Cu O 4,{},"{'La': 1.85, 'Sr': 0.15, 'Cu': 1, 'O': 4}",37.0,0.0,,,
Ba 1-x K x Bi O 3,{'x': []},,30.0,0.0,,,10.1007/978-3-540-73253-2_3
Ba Pb 0.75 Bi 0.25 O 3,{},"{'Ba': 1, 'Pb': 0.75, 'Bi': 0.25, 'O': 3}",12.0,0.0,,,10.1007/978-3-540-73253-2_3
Y Ba 2 Cu 3 O 7-y,{'y': []},,90.0,0.0,,,10.1007/978-3-540-73253-2_3
Mg B 2,{},"{'Mg': 1, 'B': 2}",39.0,0.0,,,10.1007/978-3-540-73253-2_3
S,{},{'S': 1},17.0,0.0,,,10.1007/978-3-540-73253-2_3
Ba Pb 0.75 Bi 0.25 O 3,{},"{'Ba': 1, 'Pb': 0.75, 'Bi': 0.25, 'O': 3}",30.0,0.0,,,10.1007/978-3-540-73253-2_3
Fe Te,{},"{'Fe': 1, 'Te': 1}",13.0,0.0,,,10.1088/2053-1583/2/1/015001
Fe Se,{},"{'Fe': 1, 'Se': 1}",8.0,0.0,,,10.1088/2053-1583/2/1/015001
La Fe As O,{},"{'La': 1, 'Fe': 1, 'As': 1, 'O': 1}",26.0,0.0,,,10.1088/2053-1583/2/1/015001
Fe Te,{},"{'Fe': 1, 'Te': 1}",15.0,0.0,,,10.1088/2053-1583/2/1/015001
Fe Se,{},"{'Fe': 1, 'Se': 1}",70.0,0.0,monolayer,,10.1088/2053-1583/2/1/015001
Fe Se,{},"{'Fe': 1, 'Se': 1}",37.0,9.0,,,10.1088/2053-1583/2/1/015001
Y Ba 2 Cu 3 O 7-δ,{'δ': []},,90.0,0.0,,,10.1007/s10948-018-4877-3
Ba 0.6 K 0.4 Fe 2 As 2,{},"{'Ba': 0.6, 'K': 0.4, 'Fe': 2, 'As': 2}",40.0,0.0,,,10.1016/j.scib.2018.12.024
Ca K Fe 4 As 4,{},"{'Ca': 1, 'K': 1, 'Fe': 4, 'As': 4}",36.0,0.0,,,10.1016/j.scib.2018.12.024
(Bi Se) 1.1 Nb Se 2,{},"{'Bi': 1.1, 'Se': 3.1, 'Nb': 1}",3.0,0.0,,,
Nb Se 2,{},"{'Nb': 1, 'Se': 2}",3.0,0.0,Monolayer,,
Nb Se 2,{},"{'Nb': 1, 'Se': 2}",7.0,0.0,Monolayer,,
Nb x Bi 2 Se 3,{'x': []},,3.0,0.0,,,
Sr x Bi 2 Se 3,{'x': []},,2.5,0.0,,,
Nb 0.5 Bi 2 Se 3,{},"{'Nb': 0.5, 'Bi': 2, 'Se': 3}",7.0,0.0,,,
Bi 2 Te 3,{},"{'Bi': 2, 'Te': 3}",5.5,0.0,,,
Sr Ni 2 As 2,{},"{'Sr': 1, 'Ni': 2, 'As': 2}",0.62,0.0,,,
Ba 1-x Sr x Ni 2 As 2,{'x': []},,0.6,0.0,,,
Sr Ti O 3,{},"{'Sr': 1, 'Ti': 1, 'O': 3}",90.0,0.0,,,10.1063/1.4813840
Ru Sr 2 Gd Cu 2 O 8,{},"{'Ru': 1, 'Sr': 2, 'Gd': 1, 'Cu': 2, 'O': 8}",5.0,0.0,,,10.1007/3-540-45814-x_12
Gd Ba 2 Cu 3 O 7,{},"{'Gd': 1, 'Ba': 2, 'Cu': 3, 'O': 7}",92.0,0.0,,,10.1007/3-540-45814-x_12
Ru Sr 2 Gd Cu 2 O 8,{},"{'Ru': 1, 'Sr': 2, 'Gd': 1, 'Cu': 2, 'O': 8}",45.0,0.0,,,10.1007/3-540-45814-x_12
K x Fe 2+δ Se 2,"{'δ': [], 'x': []}",,44.0,0.0,,,10.1103/physrevb.90.214508
K x Fe 2-δ Se 2,"{'δ': [], 'x': []}",,30.0,0.0,,,10.1103/physrevb.90.214508
Fe Se,{},"{'Fe': 1, 'Se': 1}",30.0,0.0,,,10.1103/physrevb.90.214508
K 0.6 (N H 3) y Fe 2 Se 2,{'y': []},,30.0,0.0,,,10.1103/physrevb.90.214508
K 0.3 (N H 3) y Fe 2 Se 2,{'y': []},,30.0,0.0,,,10.1103/physrevb.90.214508
Fe Se,{},"{'Fe': 1, 'Se': 1}",45.0,0.0,,,10.1103/physrevb.90.214508
Mg B 2,{},"{'Mg': 1, 'B': 2}",39.0,0.0,,,10.1016/s0038-1098(01)00470-7
Mg C Ni 3,{},"{'Mg': 1, 'C': 1, 'Ni': 3}",8.2,0.0,,,10.1016/s0038-1098(01)00470-7
Al,{},{'Al': 1},1.2,0.0,,,10.1103/physrevlett.113.227002
Mg B 2,{},"{'Mg': 1, 'B': 2}",49.0,0.0,,,10.1016/s0038-1098(01)00207-1
Mg B 2,{},"{'Mg': 1, 'B': 2}",39.0,0.0,,,10.1016/s0038-1098(01)00207-1
Bi 2 Sr 2 Ca Cu 2 O 8+x,{'x': []},,6.0,0.0,films,,10.1088/1742-6596/400/2/022141
Bi 2.15 Sr 1.85 Ca Cu 2 O 8+x,{'x': []},,80.0,0.0,powders,,10.1088/1742-6596/400/2/022141
Tl Sr 2 Ca Cu 2 O 7-δ,{'δ': []},,52.0,0.0,,,10.1007/s10948-019-05174-w
Y Ba 2 Cu 4 O 8,{},"{'Y': 1, 'Ba': 2, 'Cu': 4, 'O': 8}",81.0,0.0,,,10.1007/s10948-019-05174-w
Sn Te,{},"{'Sn': 1, 'Te': 1}",0.3,0.0,,,10.1103/physrevlett.107.097001
Bi 2 Te 3,{},"{'Bi': 2, 'Te': 3}",5.5,0.0,,,10.1103/physrevlett.107.097001
Bi 2 Se 3,{},"{'Bi': 2, 'Se': 3}",3.8,0.0,,,10.1103/physrevlett.107.097001
Ge Te,{},"{'Ge': 1, 'Te': 1}",0.3,0.0,,,10.1103/physrevlett.107.097001
Cu x Bi 2 Se 3,{'x': []},,3.8,0.0,,,10.1103/physrevlett.107.097001
Pr 0.33 Ca 1.67 Mn O 4,{},"{'Pr': 0.33, 'Ca': 1.67, 'Mn': 1, 'O': 4}",100.0,0.0,,,10.1103/physrevlett.108.247209
Y Pd 2 Sn,{},"{'Y': 1, 'Pd': 2, 'Sn': 1}",5.4,0.0,,,10.1103/physrevb.88.094518
Nb N,{},"{'Nb': 1, 'N': 1}",15.0,0.0,,,10.1103/physrevx.9.021016
Sr 2 Ru O 4,{},"{'Sr': 2, 'Ru': 1, 'O': 4}",1.5,0.0,,,10.1103/physrevb.66.214514
Al,{},{'Al': 1},1.2,0.0,,,10.1088/0953-8984/25/3/035701
In x O,{'x': []},,1.5,0.0,films,,10.1103/physrevb.86.165101
Ca C 6,{},"{'Ca': 1, 'C': 6}",11.5,0.0,,,10.1103/physrevb.82.014530
Ba 0.5 K 0.5 Fe 2 As 2,{},"{'Ba': 0.5, 'K': 0.5, 'Fe': 2, 'As': 2}",35.0,0.0,,,10.1103/physrevb.81.174529
Mg B 2,{},"{'Mg': 1, 'B': 2}",28.0,0.0,,,
Mg B 2,{},"{'Mg': 1, 'B': 2}",25.0,0.0,films,,
Mg B 2,{},"{'Mg': 1, 'B': 2}",36.0,0.0,thin films,,
Mg B 2,{},"{'Mg': 1, 'B': 2}",23.0,0.0,,,
Mg B 2,{},"{'Mg': 1, 'B': 2}",33.0,0.0,films,,
Mg B 2,{},"{'Mg': 1, 'B': 2}",28.0,0.0,films,,
Y Pd 2 B 2 C,{},"{'Y': 1, 'Pd': 2, 'B': 2, 'C': 1}",40.0,0.0,,,
Mg B 2,{},"{'Mg': 1, 'B': 2}",24.0,0.0,films,,
La Fe As O,{},"{'La': 1, 'Fe': 1, 'As': 1, 'O': 1}",6.0,0.0,,,10.1088/0034-4885/74/12/124507
Ce Au 2 Si 2,{},"{'Ce': 1, 'Au': 2, 'Si': 2}",2.5,0.0,,,10.7566/jpsj.86.064710
In,{},{'In': 1},3.4,0.0,,,10.1103/physrevb.72.224509
Zr B 12,{},"{'Zr': 1, 'B': 12}",6.0,10.5,,,10.1103/physrevb.72.224509
Sr 2 Ru O 4,{},"{'Sr': 2, 'Ru': 1, 'O': 4}",1.42,0.0,crystals,,10.1143/jpsj.72.237
Cd 2 Re 2 O 7,{},"{'Cd': 2, 'Re': 2, 'O': 7}",0.98,0.0,single crystal,,10.1016/j.physc.2007.03.376
Ca Fe 1-x Co x As F,{'x': [0.12]},"{'Ca': 1, 'Fe': 0.88, 'Co': 0.12, 'As': 1, 'F': 1}",21.0,0.22,,,10.1016/j.jcrysgro.2016.07.029
Ca Fe 1-x Co x As F,{'x': []},,21.5,0.0,,,10.1016/j.jcrysgro.2016.07.029
Bi 2 Sr 2 Ca Cu 2 O 8,{},"{'Bi': 2, 'Sr': 2, 'Ca': 1, 'Cu': 2, 'O': 8}",91.0,0.0,,,10.1016/s0921-4526(99)01570-7
Bi 2 Sr 2 Ca Cu 2 O 8,{},"{'Bi': 2, 'Sr': 2, 'Ca': 1, 'Cu': 2, 'O': 8}",87.0,0.0,,,10.1016/s0921-4526(99)01570-7
Bi 1.74 Pb 0.38 Sr 1.88 Cu O y,{'y': []},,16.0,0.0,single crystals,,10.1103/physrevb.66.014527
Nb N,{},"{'Nb': 1, 'N': 1}",14.5,0.0,films,,10.1063/1.5031904
Mg B 2,{},"{'Mg': 1, 'B': 2}",38.7,0.0,,,10.1103/physrevb.72.220505
Mg B 2,{},"{'Mg': 1, 'B': 2}",24.5,0.0,,,10.1103/physrevb.72.220505
Mg B 2,{},"{'Mg': 1, 'B': 2}",4.4,0.0,,,10.1103/physrevb.72.220505
Ba Fe 2 As 2,{},"{'Ba': 1, 'Fe': 2, 'As': 2}",30.0,0.0,,,10.1103/physrevb.94.094504
Ba Fe 2 (As 0.7 P 0.3) 2,{},"{'Ba': 1, 'Fe': 2, 'As': 1.4, 'P': 0.6}",30.0,0.0,,,10.1103/physrevb.94.094504
Re,{},{'Re': 1},1.0,0.0,,,10.1088/0953-8984/27/4/045701
Mo 0.75 Re 0.25,{},"{'Mo': 0.75, 'Re': 0.25}",12.4,0.0,,,10.1088/0953-8984/27/4/045701
Mo 0.75 Re 0.25,{},"{'Mo': 0.75, 'Re': 0.25}",9.6,0.0,,,10.1088/0953-8984/27/4/045701
Mo 0.75 Re 0.25,{},"{'Mo': 0.75, 'Re': 0.25}",9.3,0.0,,,10.1088/0953-8984/27/4/045701
Mo,{},{'Mo': 1},0.9,0.0,,,10.1088/0953-8984/27/4/045701
Mo 0.6 Re 0.4,{},"{'Mo': 0.6, 'Re': 0.4}",9.6,0.0,,,10.1088/0953-8984/27/4/045701
Al,{},{'Al': 1},2.0,0.0,,,10.1103/physrevlett.103.087003
La Ru 3 Si 2,{},"{'La': 1, 'Ru': 3, 'Si': 2}",7.8,0.0,,,10.1103/physrevb.84.214527
La Ru 2 P 2,{},"{'La': 1, 'Ru': 2, 'P': 2}",4.1,0.0,,,10.1103/physrevb.84.214527
Ce Ru 3 Si 2,{},"{'Ce': 1, 'Ru': 3, 'Si': 2}",1.0,0.0,,,10.1103/physrevb.84.214527
Mo 2 C Br 2,{},"{'Mo': 2, 'C': 1, 'Br': 2}",12.8,0.0,,,10.1063/1.4974085
Mo 2 C,{},"{'Mo': 2, 'C': 1}",5.9,0.0,,,10.1063/1.4974085
Mo 2 C,{},"{'Mo': 2, 'C': 1}",12.0,0.0,,,10.1063/1.4974085
Sr Sn 3 Sb 4,{},"{'Sr': 1, 'Sn': 3, 'Sb': 4}",3.9,0.0,,,
Sr Sn 3,{},"{'Sr': 1, 'Sn': 3}",5.4,0.0,,,
Sn,{},{'Sn': 1},3.722,0.0,,,
La 13 Ga 8 Sb 21,{},"{'La': 13, 'Ga': 8, 'Sb': 21}",2.4,0.0,,,
Ga Sb 3,{},"{'Ga': 1, 'Sb': 3}",2.4,0.0,,,
Ba Sn 3,{},"{'Ba': 1, 'Sn': 3}",4.3,0.0,,,
Li Fe As,{},"{'Li': 1, 'Fe': 1, 'As': 1}",18.0,0.0,,,10.1103/physrevb.88.144518
Li Fe P,{},"{'Li': 1, 'Fe': 1, 'P': 1}",5.0,0.0,,,10.1103/physrevb.88.144518
Ca K (Fe 0.967 Ni 0.033) 4 As 4,{},"{'Ca': 1, 'K': 1, 'Fe': 3.868, 'Ni': 0.132, 'As': 4}",20.0,0.0,,,10.1103/physrevb.98.144520
Y Ba 2 Cu 3 O 6.5,{},"{'Y': 1, 'Ba': 2, 'Cu': 3, 'O': 6.5}",50.0,0.0,,,10.1016/s0038-1098(99)00377-4
Y Ba 2 Cu 3 O 6.5,{},"{'Y': 1, 'Ba': 2, 'Cu': 3, 'O': 6.5}",53.0,0.0,,,10.1016/s0038-1098(99)00377-4
Y Ba 2 Cu 3 O y,{'y': [6.4]},"{'Y': 1, 'Ba': 2, 'Cu': 3, 'O': 6.4}",25.0,0.0,,,10.1016/s0038-1098(99)00377-4
Rh 2 C 1-δ,{'δ': []},,9.75,0.0,,,10.1016/j.jallcom.2019.04.318
Nb 4 Rh 2 C 1-δ,{'δ': []},,9.75,0.0,,,10.1016/j.jallcom.2019.04.318
Nb Rh C,{},"{'Nb': 1, 'Rh': 1, 'C': 1}",9.3,0.0,,,10.1016/j.jallcom.2019.04.318
Nb 3 Sn,{},"{'Nb': 3, 'Sn': 1}",18.0,0.0,,,10.1016/j.jallcom.2019.04.318
Ba Fe 1.85 Ni 0.15 As 2,{},"{'Ba': 1, 'Fe': 1.85, 'Ni': 0.15, 'As': 2}",14.0,0.0,,,10.1103/physrevb.85.214516
Ba Fe 1.9 Ni 0.1 As 2,{},"{'Ba': 1, 'Fe': 1.9, 'Ni': 0.1, 'As': 2}",20.0,0.0,,,10.1103/physrevb.85.214516
Mg B 2,{},"{'Mg': 1, 'B': 2}",39.0,0.0,,,10.1142/s0217984903006505
Pb Te,{},"{'Pb': 1, 'Te': 1}",1.5,0.0,,,10.1103/physrevb.65.172504
Pr Fe As O 0.7,{},"{'Pr': 1, 'Fe': 1, 'As': 1, 'O': 0.7}",42.0,0.0,,,10.1016/j.physc.2009.11.039
Pr O x Fe As,{'x': [0.75]},"{'Pr': 1, 'O': 0.75, 'Fe': 1, 'As': 1}",45.0,0.0,,,10.1088/0953-2048/21/12/125018
Pr O 0.75 Fe As,{},"{'Pr': 1, 'O': 0.75, 'Fe': 1, 'As': 1}",30.0,0.0,,,10.1088/0953-2048/21/12/125018
La 2-x Sr x Cu O 4,{'x': []},,51.5,0.0,,,10.1007/3-540-27284-4_24
La 2-x Sr x Cu O 4,{'x': []},,30.0,0.0,,,10.1007/3-540-27284-4_24
Ca Sn 3,{},"{'Ca': 1, 'Sn': 3}",4.15,0.0,,,
Ca 4 Al 2 O 6 Fe 2 As 2,{},"{'Ca': 4, 'Al': 2, 'O': 6, 'Fe': 2, 'As': 2}",17.1,0.0,,,
Pd Te 2,{},"{'Pd': 1, 'Te': 2}",1.7,0.0,,,10.1103/physrevb.99.180504
Pd Te 2,{},"{'Pd': 1, 'Te': 2}",1.65,0.0,,,10.1103/physrevb.99.180504
Fe Se 1-x,{'x': []},,37.0,9.0,,,10.1103/physrevlett.104.087003
Mg B 2,{},"{'Mg': 1, 'B': 2}",37.3,0.0,,,10.1016/j.physc.2008.12.005
Sr 0.63 Na 0.37 Fe 2 As 2,{},"{'Sr': 0.63, 'Na': 0.37, 'Fe': 2, 'As': 2}",12.0,0.0,,,10.1038/nphys3629
Fe Te 0.6 Se 0.4,{},"{'Fe': 1, 'Te': 0.6, 'Se': 0.4}",14.0,0.0,,,
Bi 2 Sr 2 Ca Cu 2 O 8+x,{'x': []},,90.0,0.0,single crystals,,10.1103/physrevb.59.14639
Nb 5 Sb 4,{},"{'Nb': 5, 'Sb': 4}",8.6,0.0,,,10.1103/physrevb.71.144519
Nb 5 Se 2 S 2,{},"{'Nb': 5, 'Se': 2, 'S': 2}",3.4,0.0,,,10.1103/physrevb.71.144519
Nb 9,{},{'Nb': 9},0.73,0.0,,,10.1103/physrevb.71.144519
Fe 1+x Se,{'x': []},,8.0,7.0,,,
La O Fe P,{},"{'La': 1, 'O': 1, 'Fe': 1, 'P': 1}",5.0,0.0,,,
Tl Ba 2 Ca 4 Cu 5 O 14,{},"{'Tl': 1, 'Ba': 2, 'Ca': 4, 'Cu': 5, 'O': 14}",100.0,0.0,,,10.7566/jpsj.85.083701
Tl Ba 2 Ca 5 Cu 6 O 16,{},"{'Tl': 1, 'Ba': 2, 'Ca': 5, 'Cu': 6, 'O': 16}",100.0,0.0,,,10.7566/jpsj.85.083701
Tl Ba 2 Ca 5 Cu 6 O 14+δ,{'δ': []},,100.0,0.0,,,10.7566/jpsj.85.083701
Tl Ba 2 Ca 2 Cu 3 O 10,{},"{'Tl': 1, 'Ba': 2, 'Ca': 2, 'Cu': 3, 'O': 10}",133.0,0.0,,,10.7566/jpsj.85.083701
Tl 12,{},{'Tl': 12},100.0,0.0,,,10.7566/jpsj.85.083701
La Co As O,{},"{'La': 1, 'Co': 1, 'As': 1, 'O': 1}",66.0,0.0,,,10.1088/1367-2630/11/5/053008
La Fe As O 1-x F x,{'x': []},,26.0,0.0,,,10.1088/1367-2630/11/5/053008
Fe Co,{},"{'Fe': 1, 'Co': 1}",22.0,0.0,,,10.1103/physrevb.80.214534
Eu Fe 2 As 2,{},"{'Eu': 1, 'Fe': 2, 'As': 2}",30.0,0.0,,,10.1143/jpsj.78.083701
La Fe As O 1-x F x,{'x': []},,26.0,0.0,,,10.1143/jpsj.78.083701
(Ba 1-x K x) Fe 2 As 2,{'x': [0.4]},"{'Ba': 0.6, 'K': 0.4, 'Fe': 2, 'As': 2}",38.0,0.0,,,10.1143/jpsj.78.083701
Eu Fe 2 As 2,{},"{'Eu': 1, 'Fe': 2, 'As': 2}",30.0,28.0,,,10.1143/jpsj.78.083701
Y Ba 2 Cu 4 O 8,{},"{'Y': 1, 'Ba': 2, 'Cu': 4, 'O': 8}",80.0,0.0,,,10.1103/physrevlett.89.087003
Ba (Fe 1-x Co x) 2 As 2,"{'x': [0.033, 0.047]}","{'Ba': 1, 'Fe': 1.934, 'Co': 0.066, 'As': 2}",15.0,0.0,,,10.1103/physrevb.92.184504
Ba 1-x K x Fe 2 As 2,{'x': []},,38.0,0.0,,,10.1088/1367-2630/11/2/025007
La 1.875 Ba 1.25 Cu O 4,{},"{'La': 1.875, 'Ba': 1.25, 'Cu': 1, 'O': 4}",16.0,0.0,,,
Hg Ba 2 Cu O 4+y,{'y': []},,95.0,0.0,,,10.1038/nature14987
Ga Mn Sb,{},"{'Ga': 1, 'Mn': 1, 'Sb': 1}",25.0,0.0,,,
Ga Mn As,{},"{'Ga': 1, 'Mn': 1, 'As': 1}",110.0,0.0,,,
Ga 1-x Mn x As,{'x': []},,110.0,0.0,,,10.1143/jjap.42.l105
Mg C Ni 3,{},"{'Mg': 1, 'C': 1, 'Ni': 3}",8.5,0.0,,,10.1557/proc-718-d11.3
Na Fe 0.985 Co 0.015,{},"{'Na': 1, 'Fe': 0.985, 'Co': 0.015}",15.0,0.0,,,10.1103/physrevb.91.104520
Na Fe 0.955 Co 0.045,{},"{'Na': 1, 'Fe': 0.955, 'Co': 0.045}",20.0,0.0,,,10.1103/physrevb.91.104520
Nb,{},{'Nb': 1},9.25,0.0,,,10.1103/physrevb.94.180510
Nb Se 2,{},"{'Nb': 1, 'Se': 2}",7.2,0.0,,,10.1103/physrevb.94.180510
La O 0.5 F 0.5 Bi S 2,{},"{'La': 1, 'O': 0.5, 'F': 0.5, 'Bi': 1, 'S': 2}",10.1,0.0,,,10.1088/0022-3727/49/27/275002
Bi 4 O 4 S 3,{},"{'Bi': 4, 'O': 4, 'S': 3}",8.6,0.0,,,10.1088/0022-3727/49/27/275002
La 0.8 Sm 0.2 O 0.5 F 0.5 Bi S 2,{},"{'La': 0.8, 'Sm': 0.2, 'O': 0.5, 'F': 0.5, 'Bi': 1, 'S': 2}",3.2,0.0,,,10.1088/0022-3727/49/27/275002
Sm O 1-x F x Bi S 2,{'x': []},,2.0,0.0,,,10.1088/0022-3727/49/27/275002
Dy 2 O 3,{},"{'Dy': 2, 'O': 3}",37.5,0.0,,,10.1063/1.2203209
Y Ba 2 Cu 3 O 7-δ,{'δ': []},,10.0,0.0,single crystals,,
Eu Ni 2 As 2,{},"{'Eu': 1, 'Ni': 2, 'As': 2}",0.4,0.0,,,
Sr Ni 2 As 2,{},"{'Sr': 1, 'Ni': 2, 'As': 2}",0.62,0.0,single crystals,,
Sr Ni 2 As 2,{},"{'Sr': 1, 'Ni': 2, 'As': 2}",0.62,0.0,single crys- tals,,
Fe Se 0.5 Te 0.5,{},"{'Fe': 1, 'Se': 0.5, 'Te': 0.5}",15.0,0.0,,,10.1016/j.intermet.2014.03.018
(Y Gd) Ba 2 Cu 3 O 7-x,{'x': []},,92.0,0.0,,,10.1038/s41535-018-0108-1
Mg B 2,{},"{'Mg': 1, 'B': 2}",39.0,0.0,,,10.1103/physrevb.88.014505
U Be 12.94 Cu 0.06,{},"{'U': 1, 'Be': 12.94, 'Cu': 0.06}",0.015,0.0,,,10.1016/s0022-3697(02)00477-8
Nd 6 Ni 5 O 12,{},"{'Nd': 6, 'Ni': 5, 'O': 12}",13.0,0.0,,,
U Co Ge,{},"{'U': 1, 'Co': 1, 'Ge': 1}",0.6,0.0,,,10.7566/jpsj.84.054710
U Co Ge,{},"{'U': 1, 'Co': 1, 'Ge': 1}",0.6,1.2,,,10.7566/jpsj.84.054710
U Rh Ge,{},"{'U': 1, 'Rh': 1, 'Ge': 1}",0.25,0.0,,,10.7566/jpsj.84.054710
Gd 1-x Th x Fe As O,{'x': []},,56.0,0.0,,,10.1143/jpsj.78.083704
La Fe As O 1-x F x,{'x': []},,26.0,0.0,,,10.1143/jpsj.78.083704
Ca C 6,{},"{'Ca': 1, 'C': 6}",11.5,0.0,,,10.1103/physrevb.81.045405
Bi 2 Sr 2 Ca 0.92 Y 0.08 Cu 2 O 8+δ,{'δ': []},,96.0,0.0,single crystals,,10.1117/12.2284783
H 2 S,{},"{'H': 2, 'S': 1}",203.0,155.0,,,10.1103/physrevx.8.031067
Mg B 2,{},"{'Mg': 1, 'B': 2}",39.0,0.0,polycrystalline,,10.1109/tic-sth.2009.5444375
Mg B 2,{},"{'Mg': 1, 'B': 2}",38.0,0.0,,,10.1109/tic-sth.2009.5444375
Pb,{},{'Pb': 1},7.2,0.0,,,10.1038/ncomms6508
Cr As,{},"{'Cr': 1, 'As': 1}",1.0,0.0,crystals,,10.1038/ncomms6508
Y Ba 2 Cu 3 O y,{'y': []},,14.0,0.0,,,
U Rh Ge,{},"{'U': 1, 'Rh': 1, 'Ge': 1}",0.25,0.0,,,10.1103/physrevb.67.144407
U Rh Ge 12,{},"{'U': 1, 'Rh': 1, 'Ge': 12}",9.6,0.0,single-crystalline,,10.1103/physrevb.67.144407
U Ge 2,{},"{'U': 1, 'Ge': 2}",9.5,0.0,,,10.1103/physrevb.67.144407
La O 1-x F x Fe As,{'x': []},,26.0,0.0,,,10.1063/1.3366601
Fe Se,{},"{'Fe': 1, 'Se': 1}",9.0,0.0,,,10.1088/0953-2048/29/5/054009
Bi 4 O 4 S 3,{},"{'Bi': 4, 'O': 4, 'S': 3}",8.6,0.0,,,10.1103/physrevb.86.214518
La O 1-x F x Bi S 2,{'x': []},,10.6,0.0,,,10.1103/physrevb.86.214518
Ca K Fe 4 As 4,{},"{'Ca': 1, 'K': 1, 'Fe': 4, 'As': 4}",35.0,0.0,single crystal,,10.1103/physrevb.99.140507
Ba 0.6 K 0.4 Fe 2 As 2,{},"{'Ba': 0.6, 'K': 0.4, 'Fe': 2, 'As': 2}",37.0,0.0,single-crystals,,10.1103/physrevlett.102.047003
Ba 0.6 K 0.4 Fe 2 As 2,{},"{'Ba': 0.6, 'K': 0.4, 'Fe': 2, 'As': 2}",37.0,0.0,single crystals,,10.1103/physrevlett.102.047003
Ce Ir In 5,{},"{'Ce': 1, 'Ir': 1, 'In': 5}",2.3,0.0,,,
Ce Rh In 5,{},"{'Ce': 1, 'Rh': 1, 'In': 5}",2.1,16.0,,,
Ce Rh In 5,{},"{'Ce': 1, 'Rh': 1, 'In': 5}",200.0,25.0,,,
Ce In 3,{},"{'Ce': 1, 'In': 3}",0.4,0.0,,,
Ce Co In 5,{},"{'Ce': 1, 'Co': 1, 'In': 5}",200.0,25.0,,,
Y Ba 2 Cu 3 O 6.6,{},"{'Y': 1, 'Ba': 2, 'Cu': 3, 'O': 6.6}",61.0,0.0,,,10.1103/physrevb.88.214517
Y Ba 2 Cu 3 O 6.55,{},"{'Y': 1, 'Ba': 2, 'Cu': 3, 'O': 6.55}",61.0,0.0,,,10.1103/physrevb.88.214517
Y Ba 2 Cu 3 O 6.75,{},"{'Y': 1, 'Ba': 2, 'Cu': 3, 'O': 6.75}",75.0,0.0,,,10.1103/physrevb.88.214517
Y Ba 2 Cu 3 O 6.45,{},"{'Y': 1, 'Ba': 2, 'Cu': 3, 'O': 6.45}",35.0,0.0,,,10.1103/physrevb.88.214517
Y Ba 2 Cu 3 O 6.99,{},"{'Y': 1, 'Ba': 2, 'Cu': 3, 'O': 6.99}",90.0,0.0,single crystals,,10.1103/physrevb.88.214517
La Ru 4 Sb 12,{},"{'La': 1, 'Ru': 4, 'Sb': 12}",3.5,0.0,,,10.1103/physrevb.72.014519
La Os 4 Sb 12,{},"{'La': 1, 'Os': 4, 'Sb': 12}",1.0,0.0,,,10.1103/physrevb.72.014519
Pr Ru 4 Sb 12,{},"{'Pr': 1, 'Ru': 4, 'Sb': 12}",1.0,0.0,,,10.1103/physrevb.72.014519
Y Ba 2 Cu 3 O 6.95,{},"{'Y': 1, 'Ba': 2, 'Cu': 3, 'O': 6.95}",92.0,0.0,,,
Bi 2 Sr 2 Ca Cu 2 O 8,{},"{'Bi': 2, 'Sr': 2, 'Ca': 1, 'Cu': 2, 'O': 8}",89.5,0.0,,,10.1016/s0921-4534(00)00734-6
Bi 2 Sr 2 Ca Cu 2 O 8,{},"{'Bi': 2, 'Sr': 2, 'Ca': 1, 'Cu': 2, 'O': 8}",4.2,0.0,,,10.1016/s0921-4534(00)00734-6
Tl 2 Ba 2 Cu O 6,{},"{'Tl': 2, 'Ba': 2, 'Cu': 1, 'O': 6}",91.0,0.0,,,10.1016/s0921-4534(00)00734-6
(Sr K) F e2 As 2,{'e': []},,26.0,0.0,,,
Sr 1-x K x Fe 2 As 2,{'x': []},,26.0,0.0,,,
(Ba K) F e2 As 2,{'e': []},,37.0,0.0,,,
Ba 1-x K x Fe 2 As 2,{'x': []},,26.0,0.0,Single crystalline,,
Ba 1-x K x Fe 2 As 2,{'x': []},,37.0,0.0,Single crystalline,,
Fe Se,{},"{'Fe': 1, 'Se': 1}",9.0,0.0,single crystal,,10.1103/physrevb.96.140505
Fe Se,{},"{'Fe': 1, 'Se': 1}",0.4,0.0,,,10.1103/physrevb.96.140505
Fe Se,{},"{'Fe': 1, 'Se': 1}",0.5,0.0,,,10.1103/physrevb.96.140505
Fe Se,{},"{'Fe': 1, 'Se': 1}",10.0,0.0,,,10.1103/physrevb.96.140505
Fe Se,{},"{'Fe': 1, 'Se': 1}",100.0,0.0,,SrTiO 3,10.1103/physrevb.96.140505
Y Ba 2 Cu 3 O 6+δ,{'δ': []},,89.5,0.0,thin film,,10.1063/1.3137164
Y Ba 2 Cu 3 O 6.99,{},"{'Y': 1, 'Ba': 2, 'Cu': 3, 'O': 6.99}",1.0,0.0,,,10.1103/physrevb.80.104509
Mg B 2 H 0.03,{},"{'Mg': 1, 'B': 2, 'H': 0.03}",0.5,0.0,,,10.1002/9781118405932.ch32
Cs C 60,{},"{'Cs': 1, 'C': 60}",20.0,5.0,,,10.1103/physrevb.63.125410
Nb 3 Sn,{},"{'Nb': 3, 'Sn': 1}",18.9,0.0,,,
La Sr Cu O,{},"{'La': 1, 'Sr': 1, 'Cu': 1, 'O': 1}",9.2,0.0,,,
Sr Pt 3 P,{},"{'Sr': 1, 'Pt': 3, 'P': 1}",8.6,0.0,crystals,,10.1016/j.jcrysgro.2016.10.003
Hg Ba 2 Cu O 6,{},"{'Hg': 1, 'Ba': 2, 'Cu': 1, 'O': 6}",95.0,0.0,,,10.1103/physrevb.95.165435
Eu Fe 2 As 2,{},"{'Eu': 1, 'Fe': 2, 'As': 2}",30.0,2.8,,,10.1088/0953-8984/22/29/292202
Fe Se,{},"{'Fe': 1, 'Se': 1}",56.6,0.0,film,,10.1021/acs.nanolett.9b00144
Fe Se,{},"{'Fe': 1, 'Se': 1}",65.0,0.0,,,10.1021/acs.nanolett.9b00144
Bi 2 Sr 2 Cu O 6,{},"{'Bi': 2, 'Sr': 2, 'Cu': 1, 'O': 6}",35.0,0.0,,,10.1038/nphys1851
Bi 2 Sr 2 Ca Cu 2 O 8,{},"{'Bi': 2, 'Sr': 2, 'Ca': 1, 'Cu': 2, 'O': 8}",90.0,0.0,,,10.1038/nphys1851
Sr 2 Ca Cu 2 O 8+δ,{'δ': []},,90.0,0.0,single crystals,,10.1038/nphys1851
Bi 2 Sr 2 Ca Cu 2 O 8+δ,{'δ': []},,90.0,0.0,single crystals,,10.1038/nphys1851
La Fe As O 1-x F x,{'x': []},,26.0,0.0,,,10.1016/j.physc.2012.02.049
Y Ba 2 Cu 3 O 6.95,{},"{'Y': 1, 'Ba': 2, 'Cu': 3, 'O': 6.95}",93.0,0.0,,,10.1038/nphys394
Y B 2 C 3 O 7-δ,{'δ': []},,86.5,0.0,thin films,,10.1016/j.physc.2009.12.026
Sr Ru O,{},"{'Sr': 1, 'Ru': 1, 'O': 1}",1.51,0.0,,,10.1103/physrevb.62.9697
Sn 0.8 Ag 0.2 Te,{},"{'Sn': 0.8, 'Ag': 0.2, 'Te': 1}",1.8,0.0,,,10.7566/jpsj.85.103701
Sn 0.8 Ag 0.2 Te,{},"{'Sn': 0.8, 'Ag': 0.2, 'Te': 1}",2.1,0.0,,,10.7566/jpsj.85.103701
Sn 0.8 Ag 0.2 Te,{},"{'Sn': 0.8, 'Ag': 0.2, 'Te': 1}",2.4,0.0,,,10.7566/jpsj.85.103701
Sn Te,{},"{'Sn': 1, 'Te': 1}",2.4,0.0,,,10.7566/jpsj.85.103701
Ag poor Sn 1-x Ag x Te,"{'p': [], 'o': [], 'x': [0.2], 'r': []}",,1.2,0.0,,,10.7566/jpsj.85.103701
La Fe As O 1-x F x,{'x': []},,30.0,0.0,,,10.1209/0295-5075/84/37005
La 1.83 Sr 0.17 Cu O 4,{},"{'La': 1.83, 'Sr': 0.17, 'Cu': 1, 'O': 4}",38.0,0.0,,,10.1209/0295-5075/84/37005
Bi 2 Sr 2 Ca Cu 2 O y,{'y': []},,80.0,0.0,,,10.1209/0295-5075/84/37005
Cs y Fe 2-x Se 2,"{'x': [], 'y': []}",,28.5,0.0,,,10.1103/physrevb.83.144410