Material,Substitutions,Composition,Tc (K),Pressure (GPa),Shape,Substrate,DOI
Sr 2 V O 3 Fe As,{},"{'Sr': 2, 'V': 1, 'O': 3, 'Fe': 1, 'As': 1}",33.0,0.0,,,10.1103/physrevb.82.140507
Mg B 2,{},"{'Mg': 1, 'B': 2}",39.0,0.0,,,10.1103/physrevb.72.075209
Ba (Fe 0.926 Co 0.074) 2 As 2,{},"{'Ba': 1, 'Fe': 1.852, 'Co': 0.148, 'As': 2}",22.2,0.0,single crystals,,10.1103/physrevb.82.140503
Bi 2 Sr 2 Ca Cu 2 O 8+δ,{'δ': []},,84.0,0.0,single crystals,,10.1103/physrevb.63.144525
Ti,{},{'Ti': 1},0.3,0.0,,,10.1063/1.3336008
La H 10,{},"{'La': 1, 'H': 10}",250.0,150.0,,,10.1051/jphyscol:19888969
La H 10,{},"{'La': 1, 'H': 10}",200.0,150.0,,,10.1051/jphyscol:19888969
La H 10,{},"{'La': 1, 'H': 10}",270.0,200.0,,,10.1051/jphyscol:19888969
Nb 3,{},{'Nb': 3},13.0,0.0,,,10.1103/physrevlett.86.4366
(Ba K) Bi O 3,{},"{'Ba': 1, 'K': 1, 'Bi': 1, 'O': 3}",9.0,0.0,,,10.1103/physrevlett.86.4366
Mg B 2,{},"{'Mg': 1, 'B': 2}",5.0,0.0,,,10.1103/physrevlett.86.4366
Mg B 2,{},"{'Mg': 1, 'B': 2}",40.0,0.0,,,10.1103/physrevlett.86.4366
Mg B 2,{},"{'Mg': 1, 'B': 2}",38.5,0.0,,,10.1103/physrevb.66.014513
Nb,{},{'Nb': 1},10.0,0.0,,,10.1103/physrevb.66.014513
La 2-x Sr x Cu O 4,{'x': []},,38.0,0.0,,,10.1088/1367-2630/11/6/065006
Y Ba 2 Cu 3 O y,{'y': []},,96.0,0.0,,,10.1088/1367-2630/11/6/065006
La Fe As O 1-x F x,{'x': []},,26.0,0.0,,,10.1143/jpsj.78.063704
W I 3 B,{},"{'W': 1, 'I': 3, 'B': 1}",76.1,0.0,,,10.1088/0953-8984/18/35/015
W I 3 B,{},"{'W': 1, 'I': 3, 'B': 1}",20.0,0.0,,,10.1088/0953-8984/18/35/015
W I 3 B,{},"{'W': 1, 'I': 3, 'B': 1}",76.2,0.0,,,10.1088/0953-8984/18/35/015
W I 3 C,{},"{'W': 1, 'I': 3, 'C': 1}",78.5,0.0,,,10.1088/0953-8984/18/35/015
Bi 2 Sr 2 Ca Cu 2 O 8,{},"{'Bi': 2, 'Sr': 2, 'Ca': 1, 'Cu': 2, 'O': 8}",64.0,0.0,,,10.1103/physrevlett.98.067004
Bi 2 Sr 2 Ca Cu 2 O 8,{},"{'Bi': 2, 'Sr': 2, 'Ca': 1, 'Cu': 2, 'O': 8}",25.0,0.0,,,10.1103/physrevlett.98.067004
Bi 2 Sr 2 Cu O 6,{},"{'Bi': 2, 'Sr': 2, 'Cu': 1, 'O': 6}",32.0,0.0,,,10.1103/physrevlett.98.067004
La Fe As O 1-x F x,{'x': []},,28.0,0.0,,,10.1038/nphys1512
Lu Ni 2 B 2 C,{},"{'Lu': 1, 'Ni': 2, 'B': 2, 'C': 1}",16.5,0.0,,,10.1016/s0168-1273(04)34002-x
U Pt 3,{},"{'U': 1, 'Pt': 3}",1.85,0.0,,,10.1016/s0168-1273(04)34002-x
U Be 13,{},"{'U': 1, 'Be': 13}",0.9,0.0,,,10.1016/s0168-1273(04)34002-x
Pr Ru 4 Os 12,{},"{'Pr': 1, 'Ru': 4, 'Os': 12}",1.0,0.0,,,10.1016/s0168-1273(04)34002-x
Ce Ir In 5,{},"{'Ce': 1, 'Ir': 1, 'In': 5}",0.4,0.0,,,10.1016/s0168-1273(04)34002-x
U Ru 2 Si 2,{},"{'U': 1, 'Ru': 2, 'Si': 2}",1.4,0.0,,,10.1016/s0168-1273(04)34002-x
Ce Co In 5,{},"{'Ce': 1, 'Co': 1, 'In': 5}",2.3,0.0,,,10.1016/s0168-1273(04)34002-x
U Pt 3,{},"{'U': 1, 'Pt': 3}",50.0,0.0,,,10.1016/s0168-1273(04)34002-x
Pu Co Ga 5,{},"{'Pu': 1, 'Co': 1, 'Ga': 5}",18.5,0.0,,,10.1016/s0168-1273(04)34002-x
Ce Pd 2 Si 2,{},"{'Ce': 1, 'Pd': 2, 'Si': 2}",2.2,1.63,,,10.1103/physrevb.63.220507
Fe Se 0.5 Te 0.5,{},"{'Fe': 1, 'Se': 0.5, 'Te': 0.5}",12.0,0.0,,,10.1103/physrevlett.104.217002
Fe Se,{},"{'Fe': 1, 'Se': 1}",8.0,0.0,,,10.1103/physrevlett.104.217002
Fe Se,{},"{'Fe': 1, 'Se': 1}",37.0,0.0,,,10.1103/physrevlett.104.217002
Re Fe As O 1-x F x,{'x': []},,55.0,0.0,,,10.1103/physrevb.78.220506
Pr Fe As O 0.89 F 0.11,{},"{'Pr': 1, 'Fe': 1, 'As': 1, 'O': 0.89, 'F': 0.11}",45.0,0.0,,,10.1103/physrevb.78.220506
La Fe As O 1-x F x,{'x': []},,26.0,0.0,,,10.1103/physrevb.78.220506
La Fe As O 0.92 F 0.08,{},"{'La': 1, 'Fe': 1, 'As': 1, 'O': 0.92, 'F': 0.08}",23.0,0.0,,,10.1103/physrevb.78.220506
Bi 2+x Sr 2-x Cu O 6,{'x': []},,15.0,0.0,,,10.1016/j.physa.2018.11.006
U Ru 2 Si 2,{},"{'U': 1, 'Ru': 2, 'Si': 2}",0.15,0.0,crystal,,10.1088/0953-8984/27/1/015701
U Ru 2 Si 2,{},"{'U': 1, 'Ru': 2, 'Si': 2}",1.5,0.0,,,10.1088/0953-8984/27/1/015701
Al,{},{'Al': 1},1.4,0.0,,,10.1063/1.5124967
Bi 2 Sr 2 Ca Cu 2 O 8,{},"{'Bi': 2, 'Sr': 2, 'Ca': 1, 'Cu': 2, 'O': 8}",77.0,0.0,,,10.1103/physrevlett.83.1018
Bi 2 Sr 2 Ca Cu 2 O 8,{},"{'Bi': 2, 'Sr': 2, 'Ca': 1, 'Cu': 2, 'O': 8}",70.0,0.0,single crystal,,10.1103/physrevlett.83.1018
La Mn 0.5 Ga 0.5 O 3,{},"{'La': 1, 'Mn': 0.5, 'Ga': 0.5, 'O': 3}",70.0,0.0,,,10.1103/physrevb.68.104402
La 0.5 Sr 0.5 Co O 3,{},"{'La': 0.5, 'Sr': 0.5, 'Co': 1, 'O': 3}",5.0,0.0,,,10.1103/physrevb.68.104402
Sr 2 Cu O 3+δ,{'δ': []},,95.0,0.0,,,
Mg B 2,{},"{'Mg': 1, 'B': 2}",40.0,0.0,,,10.1063/1.1382632
La Co P O,{},"{'La': 1, 'Co': 1, 'P': 1, 'O': 1}",48.0,0.0,,,10.1103/physrevb.92.144414
Na 1-δ Fe As,{'δ': []},,10.0,0.0,,,
Ba Fe 2 As 2,{},"{'Ba': 1, 'Fe': 2, 'As': 2}",20.0,0.0,,,
Na 1-δ Fe 1-x Rh x As,"{'δ': [], 'x': []}",,10.0,0.0,,,
Na 1-δ Fe 1-x Co x As,"{'δ': [], 'x': []}",,21.0,0.0,,,
Th Fe As N,{},"{'Th': 1, 'Fe': 1, 'As': 1, 'N': 1}",30.0,0.0,,,10.1209/0295-5075/117/57005
Fe 2 As 2,{},"{'Fe': 2, 'As': 2}",30.0,0.0,,,10.1209/0295-5075/117/57005
Fe Se,{},"{'Fe': 1, 'Se': 1}",8.0,0.0,,,10.1103/physrevb.84.155107
La O Ni As,{},"{'La': 1, 'O': 1, 'Ni': 1, 'As': 1}",2.7,0.0,,,10.1103/physrevb.92.245129
Tl Ni 2 Se 2,{},"{'Tl': 1, 'Ni': 2, 'Se': 2}",3.7,0.0,,,10.1103/physrevb.92.245129
Ba Ni 2 P 2,{},"{'Ba': 1, 'Ni': 2, 'P': 2}",2.4,0.0,,,10.1103/physrevb.92.245129
K Ni 2 S 2,{},"{'K': 1, 'Ni': 2, 'S': 2}",0.46,0.0,,,10.1103/physrevb.92.245129
La O Ni P,{},"{'La': 1, 'O': 1, 'Ni': 1, 'P': 1}",3.0,0.0,,,10.1103/physrevb.92.245129
Ba Ni 2 As 2,{},"{'Ba': 1, 'Ni': 2, 'As': 2}",0.7,0.0,,,10.1103/physrevb.92.245129
K Ni 2 Se 2,{},"{'K': 1, 'Ni': 2, 'Se': 2}",0.8,0.0,,,10.1103/physrevb.92.245129
Y Ba 2 Cu 3 O 6.67,{},"{'Y': 1, 'Ba': 2, 'Cu': 3, 'O': 6.67}",60.0,0.0,,,10.1103/physrevb.81.060506
La Ti 2 Al 20,{},"{'La': 1, 'Ti': 2, 'Al': 20}",1.14,0.0,,,10.7566/jpsj.87.033707
Ga 1-x Mn x As,{'x': [0.053]},"{'Ga': 0.947, 'Mn': 0.053, 'As': 1}",110.0,0.0,,,10.1103/physrevb.66.153202
Mg B 2,{},"{'Mg': 1, 'B': 2}",39.0,0.0,,,10.1088/0953-8984/13/44/310
Ca 1-x La x Fe As 2,{'x': []},,45.0,0.0,,,10.7566/jpsj.83.033705
Ca Fe As H,{},"{'Ca': 1, 'Fe': 1, 'As': 1, 'H': 1}",47.0,0.0,,,10.7566/jpsj.83.033705
La Fe As O 1-x F x,{'x': []},,26.0,0.0,,,10.7566/jpsj.83.033705
Ca 1-x La x Fe As H,{'x': []},,47.0,0.0,,,10.7566/jpsj.83.033705
Ca 1-x La x Fe 2 As 2,{'x': []},,47.0,0.0,,,10.7566/jpsj.83.033705
Sm Fe As O 1-x F x,{'x': []},,55.0,0.0,,,10.7566/jpsj.83.033705
La Fe As O 1-x H x,{'x': []},,47.0,0.0,,,10.7566/jpsj.83.033705
P H 3,{},"{'P': 1, 'H': 3}",100.0,0.0,,,10.1142/9789814733632_0003
Si H 4,{},"{'Si': 1, 'H': 4}",20.0,0.0,,,10.1142/9789814733632_0003
H 2 S,{},"{'H': 2, 'S': 1}",203.0,200.0,,,10.1142/9789814733632_0003
K 2 Cr 3 As 3,{},"{'K': 2, 'Cr': 3, 'As': 3}",6.1,0.0,,,10.1103/physrevb.91.020507
Rb 2 Cr 3 As 3,{},"{'Rb': 2, 'Cr': 3, 'As': 3}",4.8,0.0,,,10.1103/physrevb.91.020507
Cs 2 Cr 3 As 3,{},"{'Cs': 2, 'Cr': 3, 'As': 3}",4.8,0.0,,,10.1103/physrevb.91.020507
Fe Te 0.6 Se 0.4,{},"{'Fe': 1, 'Te': 0.6, 'Se': 0.4}",12.0,1.5,,,10.1103/physrevb.86.220509
Bi 2 Sr 2 Ca Cu 2 O 8,{},"{'Bi': 2, 'Sr': 2, 'Ca': 1, 'Cu': 2, 'O': 8}",91.0,0.0,single crystals,,10.1088/0953-2048/21/7/075019
Li,{},{'Li': 1},0.4,0.0,,,10.1038/s41598-017-04667-9
Bi 2 Sr 2 Ca 1-x Y x Cu 2 O 8+δ,"{'δ': [], 'x': [0.2]}",,81.0,0.0,,,10.7566/jpsj.83.074707
(Bi Pb) 2 (Sr La) 2 Cu O 6+δ,{'δ': []},,35.0,0.0,crystal,,10.1088/1367-2630/aa79bf
Y Ba 2 Cu 3 O 7-δ,{'δ': []},,90.0,0.0,crystal,,10.1088/1367-2630/aa79bf
Y H 9,{},"{'Y': 1, 'H': 9}",256.0,177.0,,,
H 2 S,{},"{'H': 2, 'S': 1}",20.0,0.0,,,
Sr 2 Ru O 4,{},"{'Sr': 2, 'Ru': 1, 'O': 4}",1.0,0.0,,,10.1134/1.1619498
La 1.85 Sr 0.15 Cu O 4,{},"{'La': 1.85, 'Sr': 0.15, 'Cu': 1, 'O': 4}",60.0,0.0,,,10.1098/rsta.2012.0219
S,{},{'S': 1},50.0,0.0,films,,10.1098/rsta.2012.0219
La 1.85 Sr 0.15 Cu O 4,{},"{'La': 1.85, 'Sr': 0.15, 'Cu': 1, 'O': 4}",40.0,0.0,,,10.1098/rsta.2012.0219
Mg B 2,{},"{'Mg': 1, 'B': 2}",30.0,0.0,,,10.1098/rsta.2012.0219
Gd Ba 2 Cu 3 O 7-x,{'x': []},,7.0,0.0,,,10.1098/rsta.2012.0219
W O 3,{},"{'W': 1, 'O': 3}",90.0,0.0,,,10.1098/rsta.2012.0219
Ce Pt 3 Si,{},"{'Ce': 1, 'Pt': 3, 'Si': 1}",0.75,0.0,,,10.1143/jpsjs.76sa.140
Li Fe As,{},"{'Li': 1, 'Fe': 1, 'As': 1}",18.0,0.0,,,10.1103/physrevb.93.241116
Li Fe P,{},"{'Li': 1, 'Fe': 1, 'P': 1}",5.0,0.0,,,10.1103/physrevb.93.241116
Bi 2 Sr 2 Ca 2 Cu 3 O 10,{},"{'Bi': 2, 'Sr': 2, 'Ca': 2, 'Cu': 3, 'O': 10}",110.0,0.0,,,10.1209/epl/i2000-00123-2
Bi 2 Sr 2 Ca Cu 2 O 8,{},"{'Bi': 2, 'Sr': 2, 'Ca': 1, 'Cu': 2, 'O': 8}",90.0,0.0,,,10.1209/epl/i2000-00123-2
Fe Se,{},"{'Fe': 1, 'Se': 1}",40.0,0.0,,,
Y Ba 2 Cu 3 O 7,{},"{'Y': 1, 'Ba': 2, 'Cu': 3, 'O': 7}",57.0,0.0,,,10.1038/nature06332
Y Ba 2 Cu 3 O 7,{},"{'Y': 1, 'Ba': 2, 'Cu': 3, 'O': 7}",80.0,0.0,,,10.1038/nature06332
La Fe As O 1-x F x,{'x': []},,26.0,0.0,,,10.1209/0295-5075/90/57002
Fe Te 0.8 S 0.2,{},"{'Fe': 1, 'Te': 0.8, 'S': 0.2}",7.8,0.0,,,10.1209/0295-5075/90/57002
Fe Se,{},"{'Fe': 1, 'Se': 1}",37.0,0.0,,,10.1209/0295-5075/90/57002
K Os 2 O 6,{},"{'K': 1, 'Os': 2, 'O': 6}",9.6,0.0,,,10.7566/jpsj.86.063704
Ba Pd 2 As 2,{},"{'Ba': 1, 'Pd': 2, 'As': 2}",3.5,0.0,,,10.7566/jpsj.86.063704
Ir Ge,{},"{'Ir': 1, 'Ge': 1}",4.7,0.0,,,10.7566/jpsj.86.063704
Ba (Ni 1-x Cu x) 2 As 2,{'x': []},,3.2,0.0,,,10.7566/jpsj.86.063704
Ca Pd 2 As 2,{},"{'Ca': 1, 'Pd': 2, 'As': 2}",3.5,0.0,,,10.7566/jpsj.86.063704
Ba Ni 2 (As 1-x P x) 2,{'x': []},,3.3,0.0,,,10.7566/jpsj.86.063704
Ba Ni 2 (Ge 1-x P x) 2,{'x': []},,2.9,0.0,,,10.7566/jpsj.86.063704
Ba 3 Ir 4 Ge 16,{},"{'Ba': 3, 'Ir': 4, 'Ge': 16}",6.0,0.0,,,10.7566/jpsj.86.063704
Nd Fe As O 1-δ,{'δ': []},,43.0,4.0,,,10.1143/jpsj.78.093703
Fe Se,{},"{'Fe': 1, 'Se': 1}",25.0,3.0,,,10.1143/jpsj.78.093703
La Fe As O 1-x F x,{'x': []},,26.0,0.0,,,10.1143/jpsj.78.093703
Fe Se 0.92,{},"{'Fe': 1, 'Se': 0.92}",21.0,3.5,,,10.1143/jpsj.78.093703
Fe Se,{},"{'Fe': 1, 'Se': 1}",55.0,0.0,,,10.1143/jpsj.78.093703
Sm Fe As O 1-x F x,{'x': []},,55.0,0.0,,,10.1143/jpsj.78.093703
Fe Se 0.8,{},"{'Fe': 1, 'Se': 0.8}",11.0,1.0,,,10.1143/jpsj.78.093703
Fe Se,{},"{'Fe': 1, 'Se': 1}",11.0,1.18,,,10.1143/jpsj.78.093703
Fe Se 0.88,{},"{'Fe': 1, 'Se': 0.88}",8.0,0.0,,,10.1143/jpsj.78.093703
Fe,{},{'Fe': 1},14.0,0.0,,,10.1143/jpsj.78.093703
Fe Se 0.8,{},"{'Fe': 1, 'Se': 0.8}",21.0,3.0,,,10.1143/jpsj.78.093703
La Fe As O 1-x F x,{'x': []},,55.0,0.0,,,10.1143/jpsj.78.093703
Ho Mo 6 S 8,{},"{'Ho': 1, 'Mo': 6, 'S': 8}",0.7,0.0,,,10.1016/j.crhy.2005.11.012
Ho Mo 6 S 8,{},"{'Ho': 1, 'Mo': 6, 'S': 8}",8.7,0.0,,,10.1016/j.crhy.2005.11.012
Er Rh 4 B 4,{},"{'Er': 1, 'Rh': 4, 'B': 4}",8.7,0.0,,,10.1016/j.crhy.2005.11.012
Er Rh 4 B 4,{},"{'Er': 1, 'Rh': 4, 'B': 4}",0.7,0.0,,,10.1016/j.crhy.2005.11.012
Mo 3 S 4,{},"{'Mo': 3, 'S': 4}",0.8,0.0,,,10.1016/j.crhy.2005.11.012
Ho Mo 6 Se 8,{},"{'Ho': 1, 'Mo': 6, 'Se': 8}",5.5,0.0,,,10.1016/j.crhy.2005.11.012
Y 9 Co 7,{},"{'Y': 9, 'Co': 7}",2.5,0.0,,,10.1016/j.crhy.2005.11.012
Bi,{},{'Bi': 1},0.5,0.0,crystalline,,10.1063/1.4931355
Bi 2 Sr 2 Ca Cu 2 O 8+δ,{'δ': []},,70.2,0.0,,,10.1016/s0921-4534(01)00649-9
Fe As 4,{},"{'Fe': 1, 'As': 4}",26.0,0.0,,,10.7566/jpsj.83.083702
La Fe As O 1-y F y,{'y': []},,26.0,0.0,,,10.7566/jpsj.83.083702
Gd O 0.88 Fe As,{},"{'Gd': 1, 'O': 0.88, 'Fe': 1, 'As': 1}",52.0,0.0,,,10.1209/0295-5075/102/67006
Ca 1-x Sr x Fe 2 As 2,{'x': []},,17.0,0.0,,,
Sr 0.5 Fe 2 As 2,{},"{'Sr': 0.5, 'Fe': 2, 'As': 2}",5.0,0.0,,,
Ag 20,{},{'Ag': 20},67.0,0.0,,,10.1016/j.physc.2013.10.008
Y Ba 2 Cu 3 O 7,{},"{'Y': 1, 'Ba': 2, 'Cu': 3, 'O': 7}",90.0,0.0,,,10.1016/j.physc.2013.10.008
Rb Os 2 O 6,{},"{'Rb': 1, 'Os': 2, 'O': 6}",6.13,0.0,crystals,,10.1103/physrevb.77.134514
Rb Os 2 O 6,{},"{'Rb': 1, 'Os': 2, 'O': 6}",6.13,0.0,single crystal,,10.1103/physrevb.77.134514
Rb Os 2 O 6,{},"{'Rb': 1, 'Os': 2, 'O': 6}",6.25,5.0,single crystal,,10.1103/physrevb.77.134514
Bi 2 Sr 2 Ca Cu 2 O 8,{},"{'Bi': 2, 'Sr': 2, 'Ca': 1, 'Cu': 2, 'O': 8}",65.0,0.0,,,10.1103/physrevb.67.165101
Bi 2 Sr 2 Ca Cu 2 O 8,{},"{'Bi': 2, 'Sr': 2, 'Ca': 1, 'Cu': 2, 'O': 8}",28.0,0.0,,,10.1103/physrevb.67.165101
Pb 0.5 Bi 1.55 Sr 1.2 La 0.8 Cu O 6+δ,{'δ': []},,10.0,0.0,,,10.1088/1367-2630/11/5/055067
Pb 0.55 Bi 1.5 Sr 1.6 La 0.4 Cu O 6+δ,{'δ': []},,10.0,0.0,,,10.1088/1367-2630/11/5/055067
Mn P,{},"{'Mn': 1, 'P': 1}",1.0,8.0,,,10.1088/1361-648x/aa7023
Mg C Ni 3,{},"{'Mg': 1, 'C': 1, 'Ni': 3}",7.5,0.0,,,
Pd,{},{'Pd': 1},2.0,0.0,,,10.1088/0953-8984/16/6/018
La O 1-x F x F e As,"{'x': [0.13], 'e': []}",,25.0,0.0,,,10.1016/j.physc.2008.05.051
(La 1-x Sr x) O F e As,"{'x': [0.13], 'e': []}",,25.0,0.0,,,10.1016/j.physc.2008.05.051
Pr Os 4 Sb 12,{},"{'Pr': 1, 'Os': 4, 'Sb': 12}",1.8,0.0,,,10.1016/j.physb.2007.10.329
K Fe 2 As 2,{},"{'K': 1, 'Fe': 2, 'As': 2}",3.0,0.0,,,10.1103/physrevb.86.144530
K 0.8 Fe 2-y Se 2,{'y': []},,31.0,0.0,single crystal,,10.1103/physrevb.86.144530
K 0.8 Fe 2-y Se 2,{'y': []},,31.0,0.0,,,10.1103/physrevb.86.144530
Ba 1-x K x Fe 2 As 2,{'x': []},,82.0,0.0,,,10.1016/j.crhy.2015.07.001
K 72,{},{'K': 72},27.0,0.0,,,10.1088/0953-8984/24/43/435701
K y Fe 2-x Se 2,"{'x': [], 'y': []}",,30.0,0.0,,,10.1088/0953-8984/24/43/435701
Cs y Fe 2-x Se 2,"{'x': [], 'y': []}",,30.0,0.0,,,10.1088/0953-8984/24/43/435701
Rb y Fe 2-x Se 2,"{'x': [], 'y': []}",,30.0,0.0,,,10.1088/0953-8984/24/43/435701
K 0.8 Fe 2-y Se 2,{'y': []},,31.0,0.0,single crystal,,10.1103/physrevb.85.180510
K 0.8 Fe 2-y Se 2,{'y': []},,31.0,0.0,,,10.1103/physrevb.85.180510
K Fe 2 As 2,{},"{'K': 1, 'Fe': 2, 'As': 2}",3.0,0.0,,,10.1103/physrevb.85.180510
K 0.8 Fe 2-y Se 2,{'y': []},,30.0,0.0,,,10.1103/physrevb.85.180510
Bi 2 Sr 2 Ca Cu 2 O 8+δ,{'δ': []},,91.0,0.0,single-crystal,,10.1038/s41467-020-14282-4
Bi 2 Sr 2 Ca Cu 2 O 8,{},"{'Bi': 2, 'Sr': 2, 'Ca': 1, 'Cu': 2, 'O': 8}",91.0,0.0,,,10.1038/s41467-020-14282-4
Bi 2 Sr 2 Ca Cu 2 O 8,{},"{'Bi': 2, 'Sr': 2, 'Ca': 1, 'Cu': 2, 'O': 8}",50.0,0.0,,,10.1038/s41467-020-14282-4
Mg B 2,{},"{'Mg': 1, 'B': 2}",39.0,0.0,,,10.1103/physrevlett.86.4656
H 3 S,{},"{'H': 3, 'S': 1}",200.0,170.0,,,10.1038/nphys4156
Fe Se,{},"{'Fe': 1, 'Se': 1}",8.5,8.9,,,10.1103/physrevb.84.214511
Fe Se,{},"{'Fe': 1, 'Se': 1}",10.0,0.0,,,10.1103/physrevb.84.214511
Ba Fe 2 Se 3,{},"{'Ba': 1, 'Fe': 2, 'Se': 3}",1.8,0.0,,,10.1103/physrevb.84.214511
Bi 2 Ba 2 Ca Cu 2 O 8+δ,{'δ': []},,90.0,0.0,,,10.1103/physrevb.75.104518
K x Fe 2-y Se 2,"{'x': [], 'y': []}",,30.0,0.0,,,10.1103/physrevx.4.031018
K 0.7 Fe 1.46 Se 1.85 Te 0.15,{},"{'K': 0.7, 'Fe': 1.46, 'Se': 1.85, 'Te': 0.15}",1.75,0.0,,,10.1103/physrevx.4.031018
Bi 2 Sr 2 Ca Cu 2 O 8,{},"{'Bi': 2, 'Sr': 2, 'Ca': 1, 'Cu': 2, 'O': 8}",91.0,0.0,,,
La Fe As O 1-x F x,{'x': []},,26.0,0.0,,,10.1088/0953-2048/26/6/065003
Y Ba 2 Cu 4 O 8,{},"{'Y': 1, 'Ba': 2, 'Cu': 4, 'O': 8}",81.0,0.0,,,10.1063/1.59592
Cs 3 C 60,{},"{'Cs': 3, 'C': 60}",38.0,0.0,,,10.1209/0295-5075/104/47013
Ca C 6,{},"{'Ca': 1, 'C': 6}",11.5,0.0,,,10.1209/0295-5075/104/47013
Ba Fe 2-x Co x As 2,{'x': []},,25.0,0.0,,,10.1103/physrevb.86.100501
Ba Fe 2-x Ni x As 2,{'x': []},,25.0,0.0,,,10.1103/physrevb.86.100501
Ba Fe 2 As 2,{},"{'Ba': 1, 'Fe': 2, 'As': 2}",39.0,0.0,,,10.1103/physrevb.86.100501
La O 1-x F x Fe As,{'x': []},,26.0,0.0,,,10.1209/0295-5075/83/67006
Gd Fe As O 1-x,{'x': []},,53.5,0.0,,,10.1209/0295-5075/83/67006
Gd O 0.83 F 0.17 Fe As,{},"{'Gd': 1, 'O': 0.83, 'F': 0.17, 'Fe': 1, 'As': 1}",36.0,0.0,,,10.1209/0295-5075/83/67006
Gd Fe As O,{},"{'Gd': 1, 'Fe': 1, 'As': 1, 'O': 1}",20.0,0.0,,,10.1209/0295-5075/83/67006
Gd Fe As O,{},"{'Gd': 1, 'Fe': 1, 'As': 1, 'O': 1}",56.0,0.0,,,10.1209/0295-5075/83/67006
Sm O 1-x F x Fe As,{'x': []},,55.0,0.0,,,10.1209/0295-5075/83/67006
Gd Fe As O 1-x F x,{'x': []},,10.0,0.0,,,10.1209/0295-5075/83/67006
Fe 0.99 Te 0.45 Se 0.55,{},"{'Fe': 0.99, 'Te': 0.45, 'Se': 0.55}",14.0,0.0,,,10.1002/adma.201401518
Ca 0.85 Pr 0.15 Fe 2 As 2,{},"{'Ca': 0.85, 'Pr': 0.15, 'Fe': 2, 'As': 2}",45.0,0.0,,,10.1002/adma.201401518
Ba Fe 1.92 Co 0.08 As 2,{},"{'Ba': 1, 'Fe': 1.92, 'Co': 0.08, 'As': 2}",24.0,0.0,,,10.1002/adma.201401518
La Ni Si,{},"{'La': 1, 'Ni': 1, 'Si': 1}",3.05,0.0,,,10.1088/1361-6668/aa8f8e
La Pt Ge,{},"{'La': 1, 'Pt': 1, 'Ge': 1}",3.05,0.0,,,10.1088/1361-6668/aa8f8e
La 2 Cu O 4+δ,{'δ': []},,45.0,0.0,,,10.1007/s10948-013-2142-3
La 2 Cu O 4,{},"{'La': 2, 'Cu': 1, 'O': 4}",35.0,0.0,,,10.1007/s10948-013-2142-3
Ba 0.6 K 0.4 Fe 2 As 2,{},"{'Ba': 0.6, 'K': 0.4, 'Fe': 2, 'As': 2}",37.0,0.0,crystals,,10.1016/j.physc.2009.03.037
Ba (Fe 1-x Co x) 2 As 2,{'x': [0.15]},"{'Ba': 1, 'Fe': 1.7, 'Co': 0.3, 'As': 2}",25.0,0.0,crystals,,10.1016/j.physc.2009.03.037
Ba 0.6 K 0.4 Fe 2 As 2,{},"{'Ba': 0.6, 'K': 0.4, 'Fe': 2, 'As': 2}",38.0,0.0,,,10.1016/j.physc.2009.03.037
Ba (Fe 0.93 Co 0.07) 2 As 2,{},"{'Ba': 1, 'Fe': 1.86, 'Co': 0.14, 'As': 2}",23.0,0.0,,,10.1016/j.physc.2009.03.037
Tl 22 O,{},"{'Tl': 22, 'O': 1}",80.0,0.0,,,10.1103/physrevb.58.11753
Tl 2 Ba 2 Cu O 6+δ,{'δ': []},,56.0,0.0,,,10.1103/physrevb.58.11753
La O Fe P,{},"{'La': 1, 'O': 1, 'Fe': 1, 'P': 1}",5.0,0.0,,,10.1166/jap.2013.1060
Mg B 2,{},"{'Mg': 1, 'B': 2}",26.0,0.0,,,10.1166/jap.2013.1060
La O Fe As,{},"{'La': 1, 'O': 1, 'Fe': 1, 'As': 1}",26.0,0.0,,,10.1166/jap.2013.1060
Tl 2 Ba 2 Cu O 6+δ,{'δ': []},,78.0,0.0,,,10.1103/physrevb.88.214509
Tl 2 Ba 2 Cu O 6+δ,{'δ': []},,26.0,0.0,,,10.1103/physrevb.88.214509
Tl 2 Ba 2 Cu O 6+δ,{'δ': []},,30.0,0.0,,,10.1103/physrevb.88.214509
Tl 2 Ba 2 Cu O 6+δ,{'δ': []},,25.0,0.0,,,10.1103/physrevb.88.214509
Tl 2 Ba 2 Cu O 6+δ,{'δ': []},,25.0,0.0,single crystal,,10.1103/physrevb.88.214509
U Ge 2,{},"{'U': 1, 'Ge': 2}",0.6,1.22,,,10.1016/j.jallcom.2016.06.048
Rh Ge,{},"{'Rh': 1, 'Ge': 1}",0.96,0.0,,,10.1016/j.jallcom.2016.06.048
Rh Ge 0.986,{},"{'Rh': 1, 'Ge': 0.986}",2.5,0.0,,,10.1016/j.jallcom.2016.06.048
Sr 0.9 La 0.1 Cu O 2,{},"{'Sr': 0.9, 'La': 0.1, 'Cu': 1, 'O': 2}",43.0,0.0,,,10.1088/1742-6596/400/2/022140
Sr 0.9 La 0.1 Cu O 2,{},"{'Sr': 0.9, 'La': 0.1, 'Cu': 1, 'O': 2}",43.0,0.0,polycrystalline,,10.1088/1742-6596/400/2/022140
Li O H Fe Se,{},"{'Li': 1, 'O': 1, 'H': 1, 'Fe': 1, 'Se': 1}",43.0,0.0,,,10.1021/ic102291r
Ca 12,{},{'Ca': 12},5.0,32.0,,,10.1103/physrevb.72.064512
Ca 12,{},{'Ca': 12},5.0,37.0,,,10.1103/physrevb.72.064512
Fe Te 0.8 S 0.2,{},"{'Fe': 1, 'Te': 0.8, 'S': 0.2}",7.8,0.0,,,10.1088/0953-2048/24/5/055008
Na Fe 0.95 Co 0.05 As,{},"{'Na': 1, 'Fe': 0.95, 'Co': 0.05, 'As': 1}",18.0,0.0,,,10.1103/physrevb.84.064519
Ca Fe As H,{},"{'Ca': 1, 'Fe': 1, 'As': 1, 'H': 1}",47.0,0.0,,,10.1103/physrevb.93.195148
Y Ba 2 Cu 3 O 6+x,{'x': []},,91.0,0.0,,,10.1103/physrevb.85.134513
La 2-x Ba x Cu O 4,{'x': [0.095]},"{'La': 1.905, 'Ba': 0.095, 'Cu': 1, 'O': 4}",32.0,0.0,,,10.1103/physrevb.85.134513
Nb 2 Sn C,{},"{'Nb': 2, 'Sn': 1, 'C': 1}",7.8,0.0,,,10.1016/j.ssc.2006.05.006
Nb 2 S 2 C 11,{},"{'Nb': 2, 'S': 2, 'C': 11}",7.6,0.0,,,10.1103/physrevb.70.064519
Ta C 1-x,{'x': []},,9.7,0.0,,,10.1103/physrevb.70.064519
Nb 2 S 2 C,{},"{'Nb': 2, 'S': 2, 'C': 1}",7.6,0.0,,,10.1103/physrevb.70.064519
Ta 2 S 2 C,{},"{'Ta': 2, 'S': 2, 'C': 1}",3.61,0.0,,,10.1103/physrevb.70.064519
Y Ba 2 Cu 4 O 8,{},"{'Y': 1, 'Ba': 2, 'Cu': 4, 'O': 8}",37.0,0.0,,,10.1103/physrevb.70.064519
Rb 3 C 60,{},"{'Rb': 3, 'C': 60}",30.0,0.0,,,10.1007/978-3-642-59689-6_3
Ca K Fe 4 As 4,{},"{'Ca': 1, 'K': 1, 'Fe': 4, 'As': 4}",35.0,0.0,,,10.1103/physrevlett.121.137204
(Sr 1-x La x) Fe 2 As 2,{'x': []},,20.8,0.0,films,,10.1109/tasc.2012.2234935
Sr (Fe 1-x Co x) 2 As 2,{'x': []},,6.6,0.0,epitaxial film,,10.1109/tasc.2012.2234935
Sr (Fe 1-x Co x) 2 As 2,{'x': []},,20.8,0.0,,,10.1109/tasc.2012.2234935
Sr 0.5 Ce 0.5 F Bi S 2-x Se x,{'x': []},,3.0,0.0,,,10.1038/srep37527
U Co Ge 27,{},"{'U': 1, 'Co': 1, 'Ge': 27}",0.6,0.0,,,10.1038/srep37527
Li Fe As,{},"{'Li': 1, 'Fe': 1, 'As': 1}",18.0,0.0,,,10.1063/1.3508957
La Fe P O,{},"{'La': 1, 'Fe': 1, 'P': 1, 'O': 1}",4.0,0.0,,,10.1063/1.3508957
Li Fe P,{},"{'Li': 1, 'Fe': 1, 'P': 1}",6.0,0.0,,,10.1063/1.3508957
Dy Fe As O 1-y,{'y': []},,43.0,0.0,,,10.1063/1.3508957
(Ba K) Fe 2 As 2,{},"{'Ba': 1, 'K': 1, 'Fe': 2, 'As': 2}",38.0,0.0,,,10.1063/1.3508957
Fe Se,{},"{'Fe': 1, 'Se': 1}",8.0,0.0,,,10.1063/1.3508957
(Ca Na) Fe 2 As 2,{},"{'Ca': 1, 'Na': 1, 'Fe': 2, 'As': 2}",26.0,0.0,,,10.1063/1.3508957
Hg Ba 2 Ca Cu 2 O 8,{},"{'Hg': 1, 'Ba': 2, 'Ca': 1, 'Cu': 2, 'O': 8}",126.0,0.0,,,10.1023/b:josc.0000011842.21466.e5