Material,Substitutions,Composition,Tc (K),Pressure (GPa),Shape,Substrate,DOI
Fe 1.02 Te 0.55 Se 0.45,{},"{'Fe': 1.02, 'Te': 0.55, 'Se': 0.45}",13.0,0.0,,,10.1007/s10948-016-3632-x
La O 1-x F x Bi S 2,{'x': []},,11.0,0.0,,,10.1016/j.ssc.2016.07.001
Mg B 2,{},"{'Mg': 1, 'B': 2}",39.0,0.0,,,10.1016/j.ssc.2016.07.001
Fe (Te x Se 1-x) 1-δ,"{'δ': [], 'x': []}",,37.0,0.0,,,10.1088/1674-0068/22/02/139-142
Fe Se 1-δ,{'δ': []},,27.0,0.0,,,10.1088/1674-0068/22/02/139-142
H,{},{'H': 1},20.3,0.0,,,10.1063/1.4963179
Mg B 2,{},"{'Mg': 1, 'B': 2}",39.0,0.0,,,10.1103/physrevb.65.214536
Mg B 2,{},"{'Mg': 1, 'B': 2}",39.0,0.0,,,10.1143/jpsj.80.055002
Sr Pt As,{},"{'Sr': 1, 'Pt': 1, 'As': 1}",2.4,0.0,,,10.1143/jpsj.80.055002
Gd Fe As O,{},"{'Gd': 1, 'Fe': 1, 'As': 1, 'O': 1}",56.0,0.0,,,10.1143/jpsj.80.055002
Nb,{},{'Nb': 1},9.5,0.0,,,10.1134/s0021364013200071
Mg B 2,{},"{'Mg': 1, 'B': 2}",35.7,0.0,,,
W Si 2,{},"{'W': 1, 'Si': 2}",35.0,0.0,,,
Zr Si 2,{},"{'Zr': 1, 'Si': 2}",35.2,0.0,,,
Zr Si 2,{},"{'Zr': 1, 'Si': 2}",35.0,0.0,,,
Ce Co In 5,{},"{'Ce': 1, 'Co': 1, 'In': 5}",2.3,0.0,,,10.1103/physrevb.99.134513
Nd Fe As O 0.6,{},"{'Nd': 1, 'Fe': 1, 'As': 1, 'O': 0.6}",53.0,0.0,,,
La Fe As O 0.75,{},"{'La': 1, 'Fe': 1, 'As': 1, 'O': 0.75}",20.0,0.0,,,
La Fe As O 0.6,{},"{'La': 1, 'Fe': 1, 'As': 1, 'O': 0.6}",28.0,0.0,,,
La Fe P O,{},"{'La': 1, 'Fe': 1, 'P': 1, 'O': 1}",4.0,0.0,,,
La Fe As O,{},"{'La': 1, 'Fe': 1, 'As': 1, 'O': 1}",28.0,0.0,,,
Nd Fe As O 0.6,{},"{'Nd': 1, 'Fe': 1, 'As': 1, 'O': 0.6}",54.0,0.0,,,
Gd Fe As O 0.6,{},"{'Gd': 1, 'Fe': 1, 'As': 1, 'O': 0.6}",53.5,0.0,,,
Bi 2 Sr 2 Ca Cu 2 O 8,{},"{'Bi': 2, 'Sr': 2, 'Ca': 1, 'Cu': 2, 'O': 8}",90.0,0.0,crystals,,
Pr 2 Ba 4 Cu 7 O 7,{},"{'Pr': 2, 'Ba': 4, 'Cu': 7, 'O': 7}",15.0,0.0,,,10.1143/jpsj.74.2885
Y Ba 2 (Cu 1-x Zn x) 4 O 8,{'x': []},,15.0,0.0,,,10.1143/jpsj.74.2885
In 2 H Nb Se 2,{},"{'In': 2, 'H': 1, 'Nb': 1, 'Se': 2}",7.2,0.0,,,10.1088/1367-2630/10/12/125027
Nd O 1-x F x Bi S 2,{'x': []},,5.4,0.0,,,10.1007/s10948-014-2686-x
La Fe P O,{},"{'La': 1, 'Fe': 1, 'P': 1, 'O': 1}",30.0,0.0,,,10.1143/jpsj.80.013710
Mg B 2,{},"{'Mg': 1, 'B': 2}",39.0,0.0,,,10.1088/0953-2048/26/3/035015
Hg Ba 2 Ca 2 Cu 3 O 10,{},"{'Hg': 1, 'Ba': 2, 'Ca': 2, 'Cu': 3, 'O': 10}",135.0,0.0,,,10.1142/s0217979298000569
Nb 2 B N,{},"{'Nb': 2, 'B': 1, 'N': 1}",4.4,0.0,,,10.1088/0953-2048/27/3/035005
Nb 2 B N,{},"{'Nb': 2, 'B': 1, 'N': 1}",4.4,0.0,polycrystalline,,10.1088/0953-2048/27/3/035005
Nb 2 B N x,{'x': []},,2.2,0.0,,,10.1088/0953-2048/27/3/035005
Mg B 12,{},"{'Mg': 1, 'B': 12}",37.0,0.0,,,10.1016/j.physc.2010.02.064
Ce Pt 3 Si,{},"{'Ce': 1, 'Pt': 3, 'Si': 1}",0.75,0.0,,,10.1103/physrevlett.94.137002
Ce Ir In 5,{},"{'Ce': 1, 'Ir': 1, 'In': 5}",0.6,0.0,,,10.1103/physrevlett.92.047004
Ba 0.6 K 0.4 Fe 2 As 2,{},"{'Ba': 0.6, 'K': 0.4, 'Fe': 2, 'As': 2}",37.0,0.0,single crystals,,10.1088/0953-8984/23/13/135701
Fe Se,{},"{'Fe': 1, 'Se': 1}",48.0,0.0,,,10.1103/physrevlett.121.237002
Mg B 2,{},"{'Mg': 1, 'B': 2}",39.3,0.0,"polycrystalline, films",,10.1088/0953-8984/20/21/215220
Mg B 2,{},"{'Mg': 1, 'B': 2}",30.5,0.0,,,10.1088/0953-8984/20/21/215220
Mg B 2,{},"{'Mg': 1, 'B': 2}",39.3,0.0,,,10.1088/0953-8984/20/21/215220
Sr 2 Ru O 4,{},"{'Sr': 2, 'Ru': 1, 'O': 4}",1.5,0.0,single crystal,,10.1103/physrevb.90.220502
Sr 2 Ru O 4,{},"{'Sr': 2, 'Ru': 1, 'O': 4}",1.42,0.0,,,10.1103/physrevb.90.220502
Ba Fe 1.85 Co 0.15 As 2,{},"{'Ba': 1, 'Fe': 1.85, 'Co': 0.15, 'As': 2}",37.0,0.0,,,10.1103/physrevb.84.144518
Ba 1-x K x Fe 2 As 2,{'x': []},,37.0,0.0,,,10.1103/physrevb.84.144518
K x Fe 2 Se 2,{'x': []},,30.0,0.0,,,10.1103/physrevb.84.144518
La Fe As O 0.89 F 0.11,{},"{'La': 1, 'Fe': 1, 'As': 1, 'O': 0.89, 'F': 0.11}",25.0,0.0,,,10.1103/physrevb.84.144518
Sn Bi 2 Se 4,{},"{'Sn': 1, 'Bi': 2, 'Se': 4}",5.9,63.2,single crystal,,10.7567/apex.11.093101
La 2 Cu O 4+y,{'y': []},,42.0,0.0,,,10.1103/physrevb.60.3294
La 1.9 Sr 0.1 Cu O 4,{},"{'La': 1.9, 'Sr': 0.1, 'Cu': 1, 'O': 4}",31.0,0.0,,,10.1103/physrevb.60.3294
Mo 6 Ga 31,{},"{'Mo': 6, 'Ga': 31}",8.2,0.0,,,10.1021/acs.inorgchem.9b02598
Mo 8 Ga 41,{},"{'Mo': 8, 'Ga': 41}",9.8,0.0,,,10.1021/acs.inorgchem.9b02598
Mo 6 Ga 31,{},"{'Mo': 6, 'Ga': 31}",9.8,0.0,,,10.1021/acs.inorgchem.9b02598
Mo 6 Ga 31,{},"{'Mo': 6, 'Ga': 31}",8.0,0.0,,,10.1021/acs.inorgchem.9b02598
Y Ba Cu O,{},"{'Y': 1, 'Ba': 1, 'Cu': 1, 'O': 1}",92.0,0.0,,,10.1103/physrevb.80.094520
Y Ba Cu O,{},"{'Y': 1, 'Ba': 1, 'Cu': 1, 'O': 1}",88.0,0.0,crystals,,10.1103/physrevb.80.094520
Y Ba Cu O,{},"{'Y': 1, 'Ba': 1, 'Cu': 1, 'O': 1}",92.0,0.0,crystals,,10.1103/physrevb.80.094520
Bi 2 Sr 2 Ca Cu 2 O 8,{},"{'Bi': 2, 'Sr': 2, 'Ca': 1, 'Cu': 2, 'O': 8}",93.0,0.0,,,10.1103/physrevb.80.094520
Bi 2 Sr 2 Ca Cu 2 O 8+x,{'x': []},,93.0,0.0,,,10.1103/physrevb.80.094520
Y Ba 2 Cu 3 O 6.65,{},"{'Y': 1, 'Ba': 2, 'Cu': 3, 'O': 6.65}",61.5,0.0,crystal,,10.1103/physrevb.80.094520
Y Ba 2 Cu 3 O 6.95,{},"{'Y': 1, 'Ba': 2, 'Cu': 3, 'O': 6.95}",92.0,0.0,sin- gle crystal,,10.1103/physrevb.80.094520
Y Ba Cu O,{},"{'Y': 1, 'Ba': 1, 'Cu': 1, 'O': 1}",61.5,0.0,,,10.1103/physrevb.80.094520
Y Ba Cu O,{},"{'Y': 1, 'Ba': 1, 'Cu': 1, 'O': 1}",61.5,0.0,crys- tals,,10.1103/physrevb.80.094520
Y Ba 2 Cu 3 O 6.95,{},"{'Y': 1, 'Ba': 2, 'Cu': 3, 'O': 6.95}",92.0,0.0,crystal,,10.1103/physrevb.80.094520
Al 2 O 3,{},"{'Al': 2, 'O': 3}",39.6,0.0,,,10.1143/jjap.51.083101
Mg B 2,{},"{'Mg': 1, 'B': 2}",40.0,0.0,,,10.1143/jjap.51.083101
Mg B 2,{},"{'Mg': 1, 'B': 2}",40.0,0.0,"single-crystal, thin film",,10.1143/jjap.51.083101
Fe Se,{},"{'Fe': 1, 'Se': 1}",8.0,0.0,,,10.1088/0256-307x/31/1/017401
Fe Se,{},"{'Fe': 1, 'Se': 1}",65.0,0.0,,SrTiO 3 (001,10.1088/0256-307x/31/1/017401
Fe Se,{},"{'Fe': 1, 'Se': 1}",90.0,0.0,,,10.1103/physrevx.6.021032
Al,{},{'Al': 1},5.0,0.0,films,,10.1103/physrevb.93.100503
Al,{},{'Al': 1},1.2,0.0,,,10.1103/physrevb.93.100503
Br,{},{'Br': 1},9.3,0.0,,,10.1103/physrevb.89.165141
Bi 4 O 4 S 3,{},"{'Bi': 4, 'O': 4, 'S': 3}",4.5,0.0,,,10.7566/jpsj.83.105001
Sr 0.5 La 0.5 F Bi S 2,{},"{'Sr': 0.5, 'La': 0.5, 'F': 1, 'Bi': 1, 'S': 2}",2.0,2.5,,,10.7566/jpsj.83.105001
Sr 0.5 La 0.5 F Bi S 2,{},"{'Sr': 0.5, 'La': 0.5, 'F': 1, 'Bi': 1, 'S': 2}",2.0,0.0,,,10.7566/jpsj.83.105001
Ce Pt 3 Si,{},"{'Ce': 1, 'Pt': 3, 'Si': 1}",0.75,0.0,,,10.1103/physrevb.77.014513
Ba 0.6 K 0.4 Fe 2 As 2,{},"{'Ba': 0.6, 'K': 0.4, 'Fe': 2, 'As': 2}",37.0,0.0,,,10.1209/0295-5075/87/37001
La O Co As,{},"{'La': 1, 'O': 1, 'Co': 1, 'As': 1}",26.0,0.0,,,10.1143/jpsj.77.063708
La (O 1-x F x) Fe As,{'x': []},,66.0,0.0,,,10.1143/jpsj.77.063708
La (O 0.93 F 0.07) Fe As,{},"{'La': 1, 'O': 0.93, 'F': 0.07, 'Fe': 1, 'As': 1}",24.0,0.0,,,10.1143/jpsj.77.063708
Zn N Ni 3,{},"{'Zn': 1, 'N': 1, 'Ni': 3}",3.0,0.0,,,10.1002/pssb.200945216
Mg C Ni 3,{},"{'Mg': 1, 'C': 1, 'Ni': 3}",8.0,0.0,,,10.1002/pssb.200945216
K x Fe 2-y Se 2,"{'x': [], 'y': []}",,30.0,0.0,,,10.1209/0295-5075/98/27002
Cs x Fe 2-y Se 2,"{'x': [], 'y': []}",,30.0,0.0,,,10.1209/0295-5075/98/27002
Rb x Fe 2-y Se 2,"{'x': [], 'y': []}",,30.0,0.0,,,10.1209/0295-5075/98/27002
Tl x Fe 2-y Se 2,"{'x': [], 'y': []}",,30.0,0.0,,,10.1209/0295-5075/98/27002
Ce Co In 5,{},"{'Ce': 1, 'Co': 1, 'In': 5}",2.3,0.0,,,10.1140/epjd/e2016-70250-2
Gd 1.4 Ce 0.6 Sr 2 Ru Cu 2 O 10,{},"{'Gd': 1.4, 'Ce': 0.6, 'Sr': 2, 'Ru': 1, 'Cu': 2, 'O': 10}",40.0,0.0,,,
Nd (O F) Bi S 2,{},"{'Nd': 1, 'O': 1, 'F': 1, 'Bi': 1, 'S': 2}",5.0,0.0,,,10.7566/jpsj.84.084703
Nd (O F) Bi S 2,{},"{'Nd': 1, 'O': 1, 'F': 1, 'Bi': 1, 'S': 2}",5.1,0.0,,,10.7566/jpsj.84.084703
La (O F) Bi S 2,{},"{'La': 1, 'O': 1, 'F': 1, 'Bi': 1, 'S': 2}",3.0,2.0,,,10.7566/jpsj.84.084703
Bi 2 O S 2,{},"{'Bi': 2, 'O': 1, 'S': 2}",0.47,0.0,,,10.7566/jpsj.84.084703
Bi 2 (O F) S 2,{},"{'Bi': 2, 'O': 1, 'F': 1, 'S': 2}",5.1,0.0,,,10.7566/jpsj.84.084703
La Pb Bi S 3 O,{},"{'La': 1, 'Pb': 1, 'Bi': 1, 'S': 3, 'O': 1}",1.5,0.0,,,10.7566/jpsj.84.084703
La (O F) Bi S 2,{},"{'La': 1, 'O': 1, 'F': 1, 'Bi': 1, 'S': 2}",5.0,0.0,,,10.7566/jpsj.84.084703
Bi 2 (O F) S 2,{},"{'Bi': 2, 'O': 1, 'F': 1, 'S': 2}",2.7,2.0,,,10.7566/jpsj.84.084703
Ge,{},{'Ge': 1},5.0,0.0,,,10.1063/1.1842367
La 2-x Ba x Cu O 4,{'x': []},,36.0,0.0,,,10.1103/physrevb.95.054516
Ba Fe 2 As 2,{},"{'Ba': 1, 'Fe': 2, 'As': 2}",29.0,2.8,single crystals,,10.1209/0295-5075/87/17004
Ba Fe 2 As 2,{},"{'Ba': 1, 'Fe': 2, 'As': 2}",29.0,2.5,,,10.1209/0295-5075/87/17004
Fe Se 0.5 Te 0.5,{},"{'Fe': 1, 'Se': 0.5, 'Te': 0.5}",13.7,0.0,film,,10.1088/0953-2048/27/12/125011
Fe Se,{},"{'Fe': 1, 'Se': 1}",7.0,0.0,epitaxial film,,10.1088/0953-2048/27/12/125011
Fe Se 0.5 Te 0.5,{},"{'Fe': 1, 'Se': 0.5, 'Te': 0.5}",13.7,0.0,film,LaAlO 3,10.1088/0953-2048/27/12/125011
Fe Se,{},"{'Fe': 1, 'Se': 1}",8.0,0.0,,,10.1088/0953-2048/27/12/125011
Fe Se,{},"{'Fe': 1, 'Se': 1}",65.0,0.0,film,,10.1088/0953-2048/27/12/125011
Y Ba 2 Cu 3 O 6.7,{},"{'Y': 1, 'Ba': 2, 'Cu': 3, 'O': 6.7}",63.0,0.0,,,10.1016/0921-4534(95)00579-x
Mg B 2,{},"{'Mg': 1, 'B': 2}",39.6,0.0,,,10.1088/0953-8984/26/16/165702
Mg B 2,{},"{'Mg': 1, 'B': 2}",39.0,0.0,,,10.1088/0953-8984/26/16/165702
Ba (Fe 1-x Co x) 2 As 2,{'x': [0.075]},"{'Ba': 1, 'Fe': 1.85, 'Co': 0.15, 'As': 2}",21.4,0.0,single crystal,,10.1103/physrevb.81.060501
I B S s,{'s': []},,9.0,0.0,,,10.1103/physrevb.94.134505
Fe Se,{},"{'Fe': 1, 'Se': 1}",10.0,0.0,,,10.1103/physrevb.94.134505
Fe Se,{},"{'Fe': 1, 'Se': 1}",9.0,0.0,,,10.1103/physrevb.94.134505
Nb N,{},"{'Nb': 1, 'N': 1}",8.65,0.0,films,,10.1103/physrevb.100.054520
W Si,{},"{'W': 1, 'Si': 1}",3.5,0.0,films,,10.1103/physrevb.100.054520
Ba Fe 2 As 2,{},"{'Ba': 1, 'Fe': 2, 'As': 2}",140.0,0.0,,,10.1103/physrevb.84.014507
Bi 2 Sr 2 Ca Cu 2 O 8,{},"{'Bi': 2, 'Sr': 2, 'Ca': 1, 'Cu': 2, 'O': 8}",13.0,0.0,,,10.1007/bf00727299
Bi 2 Sr 2 Ca Cu 2 O 8,{},"{'Bi': 2, 'Sr': 2, 'Ca': 1, 'Cu': 2, 'O': 8}",87.0,0.0,,,10.1007/bf00727299
Y Ba 2 Cu 4 O 7,{},"{'Y': 1, 'Ba': 2, 'Cu': 4, 'O': 7}",82.0,0.0,,,10.1007/bf00727299
Mg B 2,{},"{'Mg': 1, 'B': 2}",39.0,0.0,,,10.1143/jpsj.73.2631
Sr (Ga Si) 2,{},"{'Sr': 1, 'Ga': 2, 'Si': 2}",3.4,0.0,,,10.1143/jpsj.73.2631
Ca Si 2,{},"{'Ca': 1, 'Si': 2}",14.0,0.0,,,10.1143/jpsj.73.2631
Ca (Al 0.5 Si 0.5) 2,{},"{'Ca': 1, 'Al': 1.0, 'Si': 1.0}",7.7,0.0,,,10.1143/jpsj.73.2631
La Ni Ga 2,{},"{'La': 1, 'Ni': 1, 'Ga': 2}",2.0,0.0,,,
Y Ba 2 Cu 4 O 8,{},"{'Y': 1, 'Ba': 2, 'Cu': 4, 'O': 8}",81.0,0.0,,,10.1016/j.physleta.2016.04.038
Ce Ir In 5,{},"{'Ce': 1, 'Ir': 1, 'In': 5}",1.38,0.0,,,10.1016/j.physleta.2016.04.038
La 2-x-y Sr x Nd y Cu O 4,"{'x': [], 'y': []}",,120.0,0.0,,,10.1140/epjst/e2010-01300-6
Nb,{},{'Nb': 1},8.8,0.0,thin film,,10.1103/physrevb.86.144509
Ga 1-x Mn x As,{'x': []},,4.2,0.0,films,,10.1103/physrevb.72.085201
La Fe P O 1-x F x,{'x': []},,4.0,0.0,,,
Ce Co In 5,{},"{'Ce': 1, 'Co': 1, 'In': 5}",2.3,0.0,,,10.1143/jpsj.74.155
Y 2 C 3,{},"{'Y': 2, 'C': 3}",15.0,0.0,,,10.1088/1361-6633/80/3/036501
Lu Pd Bi,{},"{'Lu': 1, 'Pd': 1, 'Bi': 1}",1.7,0.0,,,10.1088/1361-6633/80/3/036501
Li 2 Pd 3 B,{},"{'Li': 2, 'Pd': 3, 'B': 1}",7.6,0.0,,,10.1088/1361-6633/80/3/036501
Y Pt Bi,{},"{'Y': 1, 'Pt': 1, 'Bi': 1}",0.77,0.0,,,10.1088/1361-6633/80/3/036501
La Ni C 2,{},"{'La': 1, 'Ni': 1, 'C': 2}",2.7,0.0,,,10.1088/1361-6633/80/3/036501
Pb Ta Se 2,{},"{'Pb': 1, 'Ta': 1, 'Se': 2}",3.7,0.0,,,10.1088/1361-6633/80/3/036501
Li 2 Pt 3 B,{},"{'Li': 2, 'Pt': 3, 'B': 1}",2.7,0.0,,,10.1088/1361-6633/80/3/036501
Ca Ir Si 3,{},"{'Ca': 1, 'Ir': 1, 'Si': 3}",3.6,0.0,,,10.1088/1361-6633/80/3/036501
Lu Pt Bi,{},"{'Lu': 1, 'Pt': 1, 'Bi': 1}",1.0,0.0,,,10.1088/1361-6633/80/3/036501
K 2 Cr 3 As 3,{},"{'K': 2, 'Cr': 3, 'As': 3}",6.1,0.0,,,10.1088/1361-6633/80/3/036501
U Co Ge,{},"{'U': 1, 'Co': 1, 'Ge': 1}",0.7,0.0,,,10.1103/physrevb.97.075130
Y Ba 2 Cu 3 O 6.67,{},"{'Y': 1, 'Ba': 2, 'Cu': 3, 'O': 6.67}",67.0,0.0,single crystal,,10.1038/s41467-020-14536-1
Y Ba 2 Cu 3 O 6.67,{},"{'Y': 1, 'Ba': 2, 'Cu': 3, 'O': 6.67}",67.0,0.0,,,10.1038/s41467-020-14536-1
Sr x Bi 2 Se 3,{'x': []},,3.0,0.0,,,
Bi 2 Sr 2 Ca Cu 2 O 8,{},"{'Bi': 2, 'Sr': 2, 'Ca': 1, 'Cu': 2, 'O': 8}",83.0,0.0,,,10.1016/s0022-3697(00)00099-8
Y Ba 2 Cu 3 O 7,{},"{'Y': 1, 'Ba': 2, 'Cu': 3, 'O': 7}",93.0,0.0,,,10.1016/s0921-4534(00)00383-x
Nb 3 Sn,{},"{'Nb': 3, 'Sn': 1}",9.2,0.0,,,10.1016/j.jallcom.2015.06.281
Nb 5 Se 2 S 2,{},"{'Nb': 5, 'Se': 2, 'S': 2}",3.4,0.0,,,10.1016/j.jallcom.2015.06.281
Nb 5 Se 4,{},"{'Nb': 5, 'Se': 4}",1.85,0.0,,,10.1016/j.jallcom.2015.06.281
Nb,{},{'Nb': 1},9.2,0.0,,,10.1103/physrevb.62.r6120
Nb N,{},"{'Nb': 1, 'N': 1}",10.0,0.0,,,10.1103/physrevb.99.224511
Nb Sn 2,{},"{'Nb': 1, 'Sn': 2}",2.68,0.0,,,10.1103/physrevb.82.024507
Sn,{},{'Sn': 1},3.72,0.0,,,10.1103/physrevb.82.024507
Nb 6 Sn 5,{},"{'Nb': 6, 'Sn': 5}",2.07,0.0,,,10.1103/physrevb.82.024507
Fe Se,{},"{'Fe': 1, 'Se': 1}",70.0,0.0,,,10.1016/j.crhy.2015.10.002
Ba Fe 2 (As P) 2,{},"{'Ba': 1, 'Fe': 2, 'As': 2, 'P': 2}",30.0,0.0,,,10.1016/j.crhy.2015.10.002
Fe Se,{},"{'Fe': 1, 'Se': 1}",8.0,0.0,,,10.1016/j.crhy.2015.10.002
Li 0.56 (N H 2) 0.53 (N H 3) 1.19 Fe 2 Se 2,{},"{'Li': 0.56, 'N': 1.72, 'H': 4.63, 'Fe': 2, 'Se': 2}",39.0,0.0,,,10.1016/j.crhy.2015.10.002
Fe Se,{},"{'Fe': 1, 'Se': 1}",40.0,0.0,,,10.1016/j.crhy.2015.10.002
Ba Fe 2 (As 1-x P x) 2,{'x': []},,28.0,0.0,single crystals,,10.1016/j.crhy.2015.10.002
Li 0.6 (N H 2) 0.2 (N H 3) 0.8 Fe 2 Se 2,{},"{'Li': 0.6, 'N': 1.0, 'H': 2.8000000000000003, 'Fe': 2, 'Se': 2}",44.0,0.0,,,10.1016/j.crhy.2015.10.002
Tl 2 Ba 2 Cu O 6,{},"{'Tl': 2, 'Ba': 2, 'Cu': 1, 'O': 6}",90.0,0.0,,,10.1103/physrevb.62.9054
Tl 2 Ba 2 Cu O 6,{},"{'Tl': 2, 'Ba': 2, 'Cu': 1, 'O': 6}",23.0,0.0,,,10.1103/physrevb.62.9054
Bi 2 Sr 2 Ca Cu 2 O 8,{},"{'Bi': 2, 'Sr': 2, 'Ca': 1, 'Cu': 2, 'O': 8}",90.0,0.0,,,10.1103/physrevb.62.9054
Y Ba 2 Cu 4 O 7,{},"{'Y': 1, 'Ba': 2, 'Cu': 4, 'O': 7}",81.0,0.0,,,10.1103/physrevb.62.9054
Y Ba 2 Cu 4 O 7,{},"{'Y': 1, 'Ba': 2, 'Cu': 4, 'O': 7}",82.0,0.0,,,10.1103/physrevb.62.9054
Ce Fe 1-x Co x As O,{'x': []},,10.0,0.0,,,10.1103/physrevb.87.174519
Sm Fe As O 1-x F x,{'x': []},,55.0,0.0,,,10.1103/physrevb.87.174519
Ce Fe As O 1-x F x,{'x': []},,35.0,0.0,,,10.1103/physrevb.87.174519
K Fe 2 Se 2,{},"{'K': 1, 'Fe': 2, 'Se': 2}",33.0,0.0,,,10.1103/physrevb.83.100515
K x Fe 2-y Se 2,"{'x': [], 'y': []}",,30.0,0.0,,,10.1103/physrevb.83.100515
Ca x Fe 2-y Se 2,"{'x': [], 'y': []}",,30.0,0.0,,,10.1103/physrevb.83.100515
Nb Se 2,{},"{'Nb': 1, 'Se': 2}",7.0,0.0,,,10.1016/j.physb.2005.11.064
Ca 2 Ru O 4,{},"{'Ca': 2, 'Ru': 1, 'O': 4}",60.0,0.0,,,
Sr 2 Ru 1-x Re x O 4-y Se y,"{'x': [], 'y': []}",,40.0,0.0,,,
Nb,{},{'Nb': 1},1.2,0.0,,,10.1063/1.2711770
La 1.94 Sr 0.06 Cu O 4+y,{'y': []},,38.0,0.0,,,
Bi 2 Sr 2 Ca Cu 2 O 8+δ,{'δ': []},,92.0,0.0,,,10.1088/1361-648x/aae7af
La O 1-x F x Fe As,{'x': []},,26.0,0.0,,,10.1063/1.3435472
Li Fe As,{},"{'Li': 1, 'Fe': 1, 'As': 1}",19.7,0.0,single crystal,,10.1063/1.3435472
Ba Fe 2 As 2,{},"{'Ba': 1, 'Fe': 2, 'As': 2}",55.0,0.0,,,10.1063/1.3435472
Sr Fe 2 As 2,{},"{'Sr': 1, 'Fe': 2, 'As': 2}",55.0,0.0,,,10.1063/1.3435472
Ca Fe 2 As 2,{},"{'Ca': 1, 'Fe': 2, 'As': 2}",55.0,0.0,,,10.1063/1.3435472
Li Fe As,{},"{'Li': 1, 'Fe': 1, 'As': 1}",19.7,0.0,Single crystal,,10.1063/1.3435472
Sr,{},{'Sr': 1},38.0,0.0,,,10.1073/pnas.1112150108
Ga As,{},"{'Ga': 1, 'As': 1}",70.0,0.0,crystals,,10.1103/physrevx.2.041019
Eu Fe 2-x Co x As 2,{'x': []},,4.2,0.0,,,10.1209/0295-5075/96/37010
Ce Co In 5,{},"{'Ce': 1, 'Co': 1, 'In': 5}",2.0,0.0,,,10.1016/j.physc.2012.04.009
Ce Cu 2 Si 2,{},"{'Ce': 1, 'Cu': 2, 'Si': 2}",0.6,0.0,,,10.1016/j.physc.2012.04.009
Ce Co In 5,{},"{'Ce': 1, 'Co': 1, 'In': 5}",2.3,0.0,,,10.1016/j.physc.2012.04.009
Sr Fe 2 As 2,{},"{'Sr': 1, 'Fe': 2, 'As': 2}",51.0,5.6,,,10.1088/0953-2048/23/5/054013
La Fe As O,{},"{'La': 1, 'Fe': 1, 'As': 1, 'O': 1}",55.0,0.0,,,10.1088/0953-2048/23/5/054013
Ce Fe As O 1-y,{'y': []},,38.0,0.0,,,10.1063/1.3319508
Sm (Fe 1-x Ru x) As O 0.85 F 0.15,{'x': []},,52.0,0.0,,,10.1088/0953-2048/25/8/084012
Fe B S,{},"{'Fe': 1, 'B': 1, 'S': 1}",55.0,0.0,,,10.1088/0953-2048/25/8/084012
Sm Fe 1-x Ru x As O 0.85 F 0.15,{'x': []},,52.0,0.0,,,10.1088/0953-2048/25/8/084012
Y 6 Ba 4 Cu 5 O 7,{},"{'Y': 6, 'Ba': 4, 'Cu': 5, 'O': 7}",35.0,0.0,,,10.1103/physrevb.83.104504
Mg B 2,{},"{'Mg': 1, 'B': 2}",39.0,0.0,thin films,,
Mg B 2,{},"{'Mg': 1, 'B': 2}",4.2,0.0,,,
Nb,{},{'Nb': 1},9.0,0.0,,,
Pr Os 4 Sb 12,{},"{'Pr': 1, 'Os': 4, 'Sb': 12}",1.75,0.0,,,10.1016/j.physb.2005.01.246
Pr Os 4 Sb 12,{},"{'Pr': 1, 'Os': 4, 'Sb': 12}",1.85,0.0,,,10.1016/j.physb.2005.01.246
Bi 2 Sr 2 Ca Cu 2 O 8,{},"{'Bi': 2, 'Sr': 2, 'Ca': 1, 'Cu': 2, 'O': 8}",90.0,0.0,,,10.1070/pu2001v044n05abeh000902
Bi 2 Sr 2 Ca Cu 2 O 8,{},"{'Bi': 2, 'Sr': 2, 'Ca': 1, 'Cu': 2, 'O': 8}",76.0,0.0,,,10.1070/pu2001v044n05abeh000902
Ce Ni Ge 3,{},"{'Ce': 1, 'Ni': 1, 'Ge': 3}",48.0,0.0,,,10.1016/j.ssc.2013.10.027
Y Ni Ge 3,{},"{'Y': 1, 'Ni': 1, 'Ge': 3}",0.46,0.0,,,10.1016/j.ssc.2013.10.027
Y Ni Ge 3,{},"{'Y': 1, 'Ni': 1, 'Ge': 3}",0.7,0.0,,,10.1016/j.ssc.2013.10.027
Ce Ni Ge 3,{},"{'Ce': 1, 'Ni': 1, 'Ge': 3}",0.5,0.0,,,10.1016/j.ssc.2013.10.027
Li Fe As,{},"{'Li': 1, 'Fe': 1, 'As': 1}",18.0,0.0,,,10.1103/physrevlett.105.067002
Sn 0.96 In 0.04 Te,{},"{'Sn': 0.96, 'In': 0.04, 'Te': 1}",1.7,0.0,,,10.1103/physrevb.96.104502
Sn 0.96 In 0.04 Te,{},"{'Sn': 0.96, 'In': 0.04, 'Te': 1}",1.5,0.0,,,10.1103/physrevb.96.104502
La 2-x Ce x Cu O 4,{'x': [0.09]},"{'La': 1.91, 'Ce': 0.09, 'Cu': 1, 'O': 4}",22.5,0.0,thin film,,10.1103/physrevb.84.104510
B c2,{'c': []},,9.5,0.0,,,10.1103/physrevb.84.104510
B c2,{'c': []},,3.35,0.0,,,10.1103/physrevb.84.104510
In 2 O 3,{},"{'In': 2, 'O': 3}",3.35,0.0,"thin disordered, films",,10.1103/physrevb.84.104510
Ti 4 Co 2 O,{},"{'Ti': 4, 'Co': 2, 'O': 1}",3.1,0.0,,,
Nb 4 Rh 2 C,{},"{'Nb': 4, 'Rh': 2, 'C': 1}",8.9,0.0,,,
Ti 4 Ir 2 O,{},"{'Ti': 4, 'Ir': 2, 'O': 1}",5.12,0.0,,,
Zr 4 Os 2 O,{},"{'Zr': 4, 'Os': 2, 'O': 1}",3.0,0.0,,,
Mg B 2,{},"{'Mg': 1, 'B': 2}",39.0,0.0,,,10.1016/s0921-4534(01)00780-8
Li 1-x Fe As,{'x': []},,18.0,0.0,,,10.1103/physrevb.87.235111
La Fe As O 1-x F x,{'x': []},,26.0,0.0,,,10.1103/physrevb.87.235111
Fe Se,{},"{'Fe': 1, 'Se': 1}",8.0,0.0,,,10.1103/physrevb.87.235111
Ba 1-x K x Fe 2 As 2,{'x': []},,38.0,0.0,,,10.1103/physrevb.87.235111
La Fe As O 1-x F x,{'x': [0.11]},"{'La': 1, 'Fe': 1, 'As': 1, 'O': 0.89, 'F': 0.11}",43.0,4.0,,,10.1103/physrevb.87.235111
K 0.8 Fe 2 Se 2,{},"{'K': 0.8, 'Fe': 2, 'Se': 2}",32.0,0.0,,,10.1103/physrevb.87.235111
Er Ni 2 B 2 C,{},"{'Er': 1, 'Ni': 2, 'B': 2, 'C': 1}",11.0,0.0,,,10.1134/s1063776113110071
Ca Fe 2 As 2,{},"{'Ca': 1, 'Fe': 2, 'As': 2}",38.0,0.0,,,10.1088/1367-2630/10/12/123003
Mg B 2,{},"{'Mg': 1, 'B': 2}",33.7,0.0,,,10.1088/1367-2630/10/12/123003
La Fe As O 1-x F x,{'x': []},,26.0,0.0,,,10.1088/1367-2630/10/12/123003
Sr Fe 2 As 2,{},"{'Sr': 1, 'Fe': 2, 'As': 2}",38.0,0.0,,,10.1088/1367-2630/10/12/123003
Eu 0.7 Na 0.3 Fe 2 As 2,{},"{'Eu': 0.7, 'Na': 0.3, 'Fe': 2, 'As': 2}",34.7,0.0,,,10.1088/1367-2630/10/12/123003
Eu 0.5 K 0.5 Fe 2 As 2,{},"{'Eu': 0.5, 'K': 0.5, 'Fe': 2, 'As': 2}",32.0,0.0,,,10.1088/1367-2630/10/12/123003
Eu 0.5 K 0.5 Fe 2 As 2,{},"{'Eu': 0.5, 'K': 0.5, 'Fe': 2, 'As': 2}",34.7,0.0,,,10.1088/1367-2630/10/12/123003
La O Fe P,{},"{'La': 1, 'O': 1, 'Fe': 1, 'P': 1}",7.0,0.0,,,10.1209/0295-5075/85/37002
La O 1-x F x Fe As,{'x': [0.1]},"{'La': 1, 'O': 0.9, 'F': 0.1, 'Fe': 1, 'As': 1}",26.0,0.0,,,10.1209/0295-5075/85/37002
Ba (Fe 0.925 Co 0.075) 2 As 2,{},"{'Ba': 1, 'Fe': 1.85, 'Co': 0.15, 'As': 2}",25.0,0.0,,,
Li C 6,{},"{'Li': 1, 'C': 6}",90.0,0.0,,,10.1039/c2nr12018f
Li C 6,{},"{'Li': 1, 'C': 6}",8.0,0.0,,,10.1039/c2nr12018f
B 2 C,{},"{'B': 2, 'C': 1}",19.2,0.0,,,10.1039/c2nr12018f
Yb C 6,{},"{'Yb': 1, 'C': 6}",6.5,0.0,,,10.1039/c2nr12018f
Nd O 0.71 F 0.29 Bi S 2,{},"{'Nd': 1, 'O': 0.71, 'F': 0.29, 'Bi': 1, 'S': 2}",5.0,0.0,,,10.1103/physrevlett.118.167002
Nd O 1-x F x Bi S 2,{'x': []},,5.6,0.0,,,10.1103/physrevlett.118.167002
Ba Fe 2-y Ni y As 2,{'y': [0.18]},"{'Ba': 1, 'Fe': 1.82, 'Ni': 0.18, 'As': 2}",8.0,0.0,,,10.1038/srep33303
(Ba K) Fe 2 As 2,{},"{'Ba': 1, 'K': 1, 'Fe': 2, 'As': 2}",20.0,0.0,,,10.1038/srep33303
Ba 1-x K x Fe 2 As 2,{'x': [0.5]},"{'Ba': 0.5, 'K': 0.5, 'Fe': 2, 'As': 2}",36.0,0.0,,,10.1038/srep33303