Material,Substitutions,Composition,Tc (K),Pressure (GPa),Shape,Substrate,DOI
Li Fe As,{},"{'Li': 1, 'Fe': 1, 'As': 1}",18.0,0.0,,,10.1209/0295-5075/85/27005
Cs Fe 2 As 2,{},"{'Cs': 1, 'Fe': 2, 'As': 2}",4.0,0.0,,,10.1209/0295-5075/85/27005
Ce Al 0.9 Si 1.1,{},"{'Ce': 1, 'Al': 0.9, 'Si': 1.1}",17.0,0.0,,,10.1103/physrev.136.a240
B lue Fe I I I 4,"{'l': [], 'u': [], 'e': []}",,5.6,0.0,,,10.1002/chin.200343201
H,{},{'H': 1},16.0,0.0,,,10.1002/chin.200343201
Mg B 2,{},"{'Mg': 1, 'B': 2}",25.0,10.0,,,10.1088/0953-2048/14/9/326
Bi 2 Sr 2 Ca Cu 2 O 8,{},"{'Bi': 2, 'Sr': 2, 'Ca': 1, 'Cu': 2, 'O': 8}",91.0,0.0,,,10.1016/s0921-4534(00)00734-6
Tl 2 Ba 2 Cu O 6,{},"{'Tl': 2, 'Ba': 2, 'Cu': 1, 'O': 6}",91.0,0.0,single crystal,,10.1016/s0921-4534(00)00734-6
Ru Cu 2 O 8,{},"{'Ru': 1, 'Cu': 2, 'O': 8}",35.0,0.0,,,10.1016/s0921-4534(03)00739-1
Gd Sr 2 Ru Cu 2 O 8,{},"{'Gd': 1, 'Sr': 2, 'Ru': 1, 'Cu': 2, 'O': 8}",46.0,0.0,,,10.1016/s0921-4534(03)00739-1
Gd 1.4 Ce 0.6 Sr 2 Ru Cu 2 O 10,{},"{'Gd': 1.4, 'Ce': 0.6, 'Sr': 2, 'Ru': 1, 'Cu': 2, 'O': 10}",34.4,0.0,,,10.1016/s0921-4534(03)00739-1
Li C x,{'x': []},,0.1,0.0,,,10.1103/physrevb.79.064503
Pd Bi 2,{},"{'Pd': 1, 'Bi': 2}",5.4,0.0,,,10.1103/physrevb.92.174404
Pd Bi,{},"{'Pd': 1, 'Bi': 1}",3.8,0.0,,,10.1103/physrevb.92.174404
Pd Bi,{},"{'Pd': 1, 'Bi': 1}",4.25,0.0,,,10.1103/physrevb.92.174404
La Sr Cu O,{},"{'La': 1, 'Sr': 1, 'Cu': 1, 'O': 1}",120.0,0.0,,,10.1007/bf02765722
Bi 2 Sr 2 Ca Cu 2 O 8,{},"{'Bi': 2, 'Sr': 2, 'Ca': 1, 'Cu': 2, 'O': 8}",70.0,0.0,,,10.1016/j.physb.2014.11.056
Bi 2 Sr 2 Ca Cu 2 O 8,{},"{'Bi': 2, 'Sr': 2, 'Ca': 1, 'Cu': 2, 'O': 8}",75.0,0.0,,,10.1016/j.physb.2014.11.056
Y Ba 2 Cu 3 O 6.6,{},"{'Y': 1, 'Ba': 2, 'Cu': 3, 'O': 6.6}",61.0,0.0,,,10.1016/j.physb.2014.11.056
Mo 1-x Re x,{'x': []},,0.1,0.0,,,10.1088/0953-2048/30/2/025003
Nb B 2,{},"{'Nb': 1, 'B': 2}",2.0,0.0,,,10.1016/s0921-4534(02)01861-0
Mo B 2.5,{},"{'Mo': 1, 'B': 2.5}",7.45,0.0,,,10.1016/s0921-4534(02)01861-0
Nb B 2.5,{},"{'Nb': 1, 'B': 2.5}",3.9,0.0,,,10.1016/s0921-4534(02)01861-0
Mg B 2,{},"{'Mg': 1, 'B': 2}",8.3,0.0,,,10.1016/s0921-4534(02)01861-0
Tb Fe As O,{},"{'Tb': 1, 'Fe': 1, 'As': 1, 'O': 1}",52.6,0.0,,,10.1103/physrevb.80.104501
Nd Fe As O 0.86 F 0.14,{},"{'Nd': 1, 'Fe': 1, 'As': 1, 'O': 0.86, 'F': 0.14}",48.0,0.0,,,10.1103/physrevb.79.224523
Ba Fe 2 As 2,{},"{'Ba': 1, 'Fe': 2, 'As': 2}",25.0,0.0,,,10.1103/physrevb.79.224523
La H 10,{},"{'La': 1, 'H': 10}",203.0,155.0,,,
Ce H 9,{},"{'Ce': 1, 'H': 9}",100.0,130.0,,,
K 0.8 Fe 1-x Se 2,{'x': []},,32.0,0.0,,,
Ba 0.6 K 0.4 Fe 2 As 2,{},"{'Ba': 0.6, 'K': 0.4, 'Fe': 2, 'As': 2}",37.0,0.0,single crystals,,
Ba (Co 0.06 Fe 0.94) 2 As 2,{},"{'Ba': 1, 'Co': 0.12, 'Fe': 1.88, 'As': 2}",25.0,0.0,,,
Sr 0.5 Sm 0.5 Fe As F,{},"{'Sr': 0.5, 'Sm': 0.5, 'Fe': 1, 'As': 1, 'F': 1}",56.0,0.0,,,10.1016/j.physc.2009.03.017
Rb Fe 2 As 2,{},"{'Rb': 1, 'Fe': 2, 'As': 2}",2.8,0.0,,,
Ba 0.6 K 0.4 Bi O 3,{},"{'Ba': 0.6, 'K': 0.4, 'Bi': 1, 'O': 3}",31.0,0.0,crystal,,
Si 5,{},{'Si': 5},5.8,0.0,,,10.1103/physrevb.85.174524
Lu 2 Fe 3 Si 5,{},"{'Lu': 2, 'Fe': 3, 'Si': 5}",6.0,0.0,,,10.1103/physrevb.85.174524
Na 0.33 Co O 2,{},"{'Na': 0.33, 'Co': 1, 'O': 2}",3.7,0.0,,,
Ca Be Si,{},"{'Ca': 1, 'Be': 1, 'Si': 1}",0.4,0.0,,,10.1088/0953-8984/21/16/164209
Mg B 2,{},"{'Mg': 1, 'B': 2}",0.4,0.0,,,10.1088/0953-8984/21/16/164209
Y Ba 2 Cu 3 O 7,{},"{'Y': 1, 'Ba': 2, 'Cu': 3, 'O': 7}",45.0,0.0,,,10.1007/s10948-016-3507-1
Nb 2 Pd S 5,{},"{'Nb': 2, 'Pd': 1, 'S': 5}",6.69,0.0,,,10.1007/s10948-016-3507-1
Nd Fe As O 0.8 F 0.2,{},"{'Nd': 1, 'Fe': 1, 'As': 1, 'O': 0.8, 'F': 0.2}",51.8,0.0,,,10.1007/s10948-016-3507-1
(La Ba Sr) 2 Cu O 4,{},"{'La': 2, 'Ba': 2, 'Sr': 2, 'Cu': 1, 'O': 4}",40.0,0.0,,,10.1007/s10948-016-3507-1
Y Ba 2 Cu 3 O 7,{},"{'Y': 1, 'Ba': 2, 'Cu': 3, 'O': 7}",91.0,0.0,,,10.1007/s10948-016-3507-1
Mg B 2,{},"{'Mg': 1, 'B': 2}",37.7,0.0,,,10.1007/s10948-016-3507-1
Ce In 3,{},"{'Ce': 1, 'In': 3}",0.095,65.0,,,10.1143/jpsj.75.043702
Ce Ni 2 Ge 2,{},"{'Ce': 1, 'Ni': 2, 'Ge': 2}",0.2,0.0,,,10.1143/jpsj.75.043702
Er Ni 2 B 2 C,{},"{'Er': 1, 'Ni': 2, 'B': 2, 'C': 1}",11.0,0.0,,,10.1063/1.2159413
Ho Ni 2 B 2 C,{},"{'Ho': 1, 'Ni': 2, 'B': 2, 'C': 1}",8.7,0.0,,,10.1063/1.2159413
Pr 0.88 La Ce 0.12 Cu O 4-δ,{'δ': []},,24.0,0.0,,,10.1073/pnas.0704822104
Bi,{},{'Bi': 1},20.0,0.0,,,10.1007/s10948-010-0947-x
Dy Ni 2 B 2 C,{},"{'Dy': 1, 'Ni': 2, 'B': 2, 'C': 1}",6.0,0.0,,,10.1103/physrevlett.84.1800
Er,{},{'Er': 1},11.0,0.0,,,10.1103/physrevlett.84.1800
K Fe 2 As 2,{},"{'K': 1, 'Fe': 2, 'As': 2}",3.5,0.0,,,10.1016/j.jmmm.2006.10.152
Ba 1-x K x Fe 2 As 2,{'x': []},,38.0,0.0,,,10.1016/j.jmmm.2006.10.152
Mg B 2,{},"{'Mg': 1, 'B': 2}",38.0,0.0,,,10.1142/s0217984906011116
Y Pt Bi,{},"{'Y': 1, 'Pt': 1, 'Bi': 1}",0.78,0.0,,,10.1103/physrevb.99.054505
K Cr 3 As 3,{},"{'K': 1, 'Cr': 3, 'As': 3}",5.0,0.0,,,
Nb Se 2,{},"{'Nb': 1, 'Se': 2}",7.2,0.0,,,
Rb Cr 3 As 3,{},"{'Rb': 1, 'Cr': 3, 'As': 3}",7.1,0.0,,,
Ba 1-x K x Ti 2 Sb 2 O,{'x': []},,1.2,0.0,,,
Tl 2-x Mo 6 Se 6,{'x': []},,6.8,0.0,,,
Rh 2 Cr 3 As 3,{},"{'Rh': 2, 'Cr': 3, 'As': 3}",4.8,0.0,,,
Cs 2 Cr 3 As 3,{},"{'Cs': 2, 'Cr': 3, 'As': 3}",2.2,0.0,,,
Li Fe As,{},"{'Li': 1, 'Fe': 1, 'As': 1}",18.0,0.0,,,10.1103/physrevlett.102.166402
Hg Ba 2 Ca Cu 2 O 8,{},"{'Hg': 1, 'Ba': 2, 'Ca': 1, 'Cu': 2, 'O': 8}",123.0,0.0,,,10.1103/physrevb.67.092508
Sr 2 Ru O 4,{},"{'Sr': 2, 'Ru': 1, 'O': 4}",1.4,0.0,,,10.1103/physrevlett.87.257601
Mg C Ni 3,{},"{'Mg': 1, 'C': 1, 'Ni': 3}",7.0,0.0,,,10.1103/physrevlett.87.257601
Y Ba 2 Cu 4 O 8,{},"{'Y': 1, 'Ba': 2, 'Cu': 4, 'O': 8}",80.0,0.0,,,10.1073/pnas.1602709113
Y Ba 2 Cu 4 O 7,{},"{'Y': 1, 'Ba': 2, 'Cu': 4, 'O': 7}",80.0,0.0,,,10.1073/pnas.1602709113
La 2 O 2 Bi 3 Ag 0.6 Sn 0.4 S 6,{},"{'La': 2, 'O': 2, 'Bi': 3, 'Ag': 0.6, 'Sn': 0.4, 'S': 6}",2.5,0.0,,,
La 2 O 2 Bi 3 Ag 0.6 Sn 0.4 S 5.7 Se 0.3,{},"{'La': 2, 'O': 2, 'Bi': 3, 'Ag': 0.6, 'Sn': 0.4, 'S': 5.7, 'Se': 0.3}",3.5,0.0,,,
La 2 O 2 Bi 3 Ag S 6,{},"{'La': 2, 'O': 2, 'Bi': 3, 'Ag': 1, 'S': 6}",0.5,0.0,,,
La O Fe P,{},"{'La': 1, 'O': 1, 'Fe': 1, 'P': 1}",5.5,0.0,,,10.1103/physrevb.77.184518
La (O 1-x F x) Fe As,{'x': []},,26.0,0.0,,,10.1103/physrevb.77.184518
La (O x F 1-x) Fe As,{'x': []},,26.0,0.0,,,10.1103/physrevb.77.184518
Tl 2 Ba 2 Cu O 6+δ,{'δ': []},,90.0,0.0,,,10.1103/physrevb.73.144503
Ce 0.95 Nd 0.05 Co In 5,{},"{'Ce': 0.95, 'Nd': 0.05, 'Co': 1, 'In': 5}",1.8,0.0,,,10.7566/jpsj.83.013707
Ce Co In 5,{},"{'Ce': 1, 'Co': 1, 'In': 5}",2.3,0.0,,,10.7566/jpsj.83.013707
Ba Fe 1.85 Co 0.15 As 2,{},"{'Ba': 1, 'Fe': 1.85, 'Co': 0.15, 'As': 2}",25.5,0.0,,,10.1103/physrevb.80.214522
Ba Fe 2 As 1-x P x,{'x': []},,30.0,0.0,,,10.1103/physrevb.80.214522
Ba (Fe 2-x Ru x) 2 As 2,{'x': [0.15]},"{'Ba': 1, 'Fe': 3.7, 'Ru': 0.3, 'As': 2}",25.7,4.94,,,10.1140/epjb/e2014-40265-8
Ba (Fe 1-x Ru x) 2 As 2,{'x': []},,17.0,0.0,,,10.1140/epjb/e2014-40265-8
Cu x Bi 2 Se 3,{'x': []},,3.8,0.0,,,10.1103/physrevb.94.180504
U Rh Ge,{},"{'U': 1, 'Rh': 1, 'Ge': 1}",0.25,0.0,,,10.7566/jpsj.83.061011
Nd Ni O 2,{},"{'Nd': 1, 'Ni': 1, 'O': 2}",10.0,0.0,,,10.1103/physrevb.100.205138
Ca Cu O 2,{},"{'Ca': 1, 'Cu': 1, 'O': 2}",110.0,0.0,,,10.1103/physrevb.100.205138
Fe Se 0.4 Te 0.6,{},"{'Fe': 1, 'Se': 0.4, 'Te': 0.6}",20.0,0.0,,,10.1103/physrevb.84.024518
Fe Se 0.4 Te 0.6,{},"{'Fe': 1, 'Se': 0.4, 'Te': 0.6}",14.0,0.0,,,10.1103/physrevb.84.024518
Ba Fe 1.92 Ni 0.08 As 2,{},"{'Ba': 1, 'Fe': 1.92, 'Ni': 0.08, 'As': 2}",17.0,0.0,,,10.1103/physrevb.84.024518
Ba Fe 1.9 Ni 0.1 As 2,{},"{'Ba': 1, 'Fe': 1.9, 'Ni': 0.1, 'As': 2}",20.0,0.0,,,10.1103/physrevb.84.024518
Nb,{},{'Nb': 1},9.2,0.0,,,10.1088/2040-8978/13/2/024001
Ba Fe 2 (As 0.7 P 0.3) 2,{},"{'Ba': 1, 'Fe': 2, 'As': 1.4, 'P': 0.6}",28.2,0.0,,,10.1088/0953-8984/23/22/222201
Ba Fe 2-x Co x As 2,{'x': []},,8.1,0.0,,,10.1088/0953-8984/23/22/222201
K x Fe 2-y Se 2,"{'x': [], 'y': []}",,32.0,0.0,,,10.1088/0953-8984/23/22/222201
La Fe P O,{},"{'La': 1, 'Fe': 1, 'P': 1, 'O': 1}",5.5,0.0,,,10.1088/0953-8984/23/22/222201
Ba Fe 2 As 2,{},"{'Ba': 1, 'Fe': 2, 'As': 2}",1.0,0.0,,,10.1088/0953-8984/23/22/222201
K Fe 2 As 2,{},"{'K': 1, 'Fe': 2, 'As': 2}",3.1,0.0,,,10.1088/0953-8984/23/22/222201
Li 2 Pd 3 B,{},"{'Li': 2, 'Pd': 3, 'B': 1}",7.5,0.0,,,
Li 2 Pt 3 B,{},"{'Li': 2, 'Pt': 3, 'B': 1}",2.13,0.0,,,
Bi 2 Se 3,{},"{'Bi': 2, 'Se': 3}",3.8,0.0,,,10.1103/physrevb.92.054503
Cu,{},{'Cu': 1},3.8,0.0,,,10.1103/physrevb.92.054503
Bi 2 Se 3,{},"{'Bi': 2, 'Se': 3}",7.0,0.0,,,10.1103/physrevb.92.054503
Sr 2 Ru O 4,{},"{'Sr': 2, 'Ru': 1, 'O': 4}",1.3,0.0,,,10.1143/jpsj.78.103705
Sr 2 Ru O 4,{},"{'Sr': 2, 'Ru': 1, 'O': 4}",1.5,0.0,,,10.1143/jpsj.78.103705
Sr 2 Ru O 4,{},"{'Sr': 2, 'Ru': 1, 'O': 4}",3.0,0.0,,,10.1143/jpsj.78.103705
Sr 2 Ru O 4 Ru,{},"{'Sr': 2, 'Ru': 2, 'O': 4}",3.0,0.0,,,10.1143/jpsj.78.103705
Sr 2 Ru O 4 Ru,{},"{'Sr': 2, 'Ru': 2, 'O': 4}",1.5,0.0,,,10.1143/jpsj.78.103705
Ba Ti 2 Bi 2 O,{},"{'Ba': 1, 'Ti': 2, 'Bi': 2, 'O': 1}",4.6,0.0,,,10.1134/s0021364013040140
Ba Ti 2 Sb 2 O,{},"{'Ba': 1, 'Ti': 2, 'Sb': 2, 'O': 1}",1.2,0.0,,,10.1134/s0021364013040140
Hf V 2 Ga 4,{},"{'Hf': 1, 'V': 2, 'Ga': 4}",4.1,0.0,,,10.1103/physrevb.98.045126
Hf V 2 Ga 4,{},"{'Hf': 1, 'V': 2, 'Ga': 4}",3.9,0.0,,,10.1103/physrevb.98.045126
K Fe 3 (S O 4) 2,{},"{'K': 1, 'Fe': 3, 'S': 2, 'O': 8}",64.5,0.0,,,10.1139/p01-093
Ca Li 2,{},"{'Ca': 1, 'Li': 2}",13.0,81.0,,,10.1103/physrevlett.100.197003
Li,{},{'Li': 1},0.4,0.0,,,10.1103/physrevlett.100.197003
Bi 2 Sr 2 Ca 2 Cu 3 O 10+δ,{'δ': []},,110.0,0.0,,,10.7566/jpsj.84.024706
Y Ba 2 Cu 3-x Mo x O 7+d,"{'x': [], 'd': []}",,60.0,0.0,,,10.1103/physrevb.73.224518
Hg Ba 2 Ca 2 Cu 3 O 8+δ,{'δ': []},,130.0,0.0,,,10.1103/physrevlett.102.027003
Hg Ba 2 Ca 2 Cu 3 O 10,{},"{'Hg': 1, 'Ba': 2, 'Ca': 2, 'Cu': 3, 'O': 10}",130.0,0.0,,,10.1103/physrevlett.102.027003
Hg Ba 2 Cu O 4+δ,{'δ': []},,90.0,0.0,,,10.1103/physrevlett.102.027003
Mg B 2,{},"{'Mg': 1, 'B': 2}",39.0,0.0,,,10.1103/physrevb.89.024512
Ba Ni 2 As 2,{},"{'Ba': 1, 'Ni': 2, 'As': 2}",0.7,0.0,,,10.1088/0953-8984/20/34/342203
Ba Ni 2 As 2,{},"{'Ba': 1, 'Ni': 2, 'As': 2}",0.7,0.0,single crystals,,10.1088/0953-8984/20/34/342203
Mg B 2,{},"{'Mg': 1, 'B': 2}",39.0,0.0,,,10.1103/physrevb.66.104510
Sm Fe As O 0.85,{},"{'Sm': 1, 'Fe': 1, 'As': 1, 'O': 0.85}",52.4,0.0,,,10.1007/s10948-010-0910-x
Sm Fe 0.9 Co 0.1 As O,{},"{'Sm': 1, 'Fe': 0.9, 'Co': 0.1, 'As': 1, 'O': 1}",14.0,0.0,,,10.1007/s10948-010-0910-x
Ce Fe As O,{},"{'Ce': 1, 'Fe': 1, 'As': 1, 'O': 1}",11.3,0.0,,,10.1007/s10948-010-0910-x
Sm Fe As O,{},"{'Sm': 1, 'Fe': 1, 'As': 1, 'O': 1}",14.0,0.0,,,10.1007/s10948-010-0910-x
La Fe As O 1-x F x,{'x': []},,26.0,0.0,,,10.1007/s10948-010-0910-x
Ce Ru 2,{},"{'Ce': 1, 'Ru': 2}",6.3,0.0,,,10.1007/bf02704945
Sm As Fe O,{},"{'Sm': 1, 'As': 1, 'Fe': 1, 'O': 1}",53.0,0.0,,,10.1103/physrevb.79.212502
Sm As Fe O 0.8 F 0.2,{},"{'Sm': 1, 'As': 1, 'Fe': 1, 'O': 0.8, 'F': 0.2}",53.0,0.0,,,10.1103/physrevb.79.212502
La Fe As O,{},"{'La': 1, 'Fe': 1, 'As': 1, 'O': 1}",26.0,0.0,,,10.1007/s40843-019-9438-7
K Ca 2 Fe 4 As 4 F 2,{},"{'K': 1, 'Ca': 2, 'Fe': 4, 'As': 4, 'F': 2}",33.0,0.0,,,10.1007/s40843-019-9438-7
Fe S C Ba 2 Fe 2 Ti 2 As 4 O,{},"{'Fe': 3, 'S': 1, 'C': 1, 'Ba': 2, 'Ti': 2, 'As': 4, 'O': 1}",21.0,0.0,,,10.1007/s40843-019-9438-7
Th Fe As N,{},"{'Th': 1, 'Fe': 1, 'As': 1, 'N': 1}",30.0,0.0,,,10.1007/s40843-019-9438-7
Nd Fe As O 0.8 F 0.2,{},"{'Nd': 1, 'Fe': 1, 'As': 1, 'O': 0.8, 'F': 0.2}",44.0,0.0,,,
Nd Fe As O 0.7 F 0.3,{},"{'Nd': 1, 'Fe': 1, 'As': 1, 'O': 0.7, 'F': 0.3}",45.0,0.0,single crystal,,
Nd Fe As O 0.7 F 0.3,{},"{'Nd': 1, 'Fe': 1, 'As': 1, 'O': 0.7, 'F': 0.3}",46.0,0.0,single crystal,,
Ba Fe 2 As 2,{},"{'Ba': 1, 'Fe': 2, 'As': 2}",40.0,0.0,,,10.1103/physrevlett.101.057006
Sr Fe 2 As 2,{},"{'Sr': 1, 'Fe': 2, 'As': 2}",40.0,0.0,,,10.1103/physrevlett.101.057006
Ca Fe 2 As 2,{},"{'Ca': 1, 'Fe': 2, 'As': 2}",40.0,0.0,,,10.1103/physrevlett.101.057006
Ca 1-x Na x Fe 2 As 2,{'x': []},,20.0,0.0,,,10.1103/physrevlett.101.057006
Ba Fe 2 As 2,{},"{'Ba': 1, 'Fe': 2, 'As': 2}",12.0,0.0,,,10.1103/physrevlett.101.057006
Sr Fe 2 As 2,{},"{'Sr': 1, 'Fe': 2, 'As': 2}",12.0,0.0,,,10.1103/physrevlett.101.057006
Ca Fe 2 As 2,{},"{'Ca': 1, 'Fe': 2, 'As': 2}",12.0,0.0,,,10.1103/physrevlett.101.057006
Sr 1-x K x Fe 2 As 2,{'x': []},,50.0,0.0,,,10.1103/physrevlett.101.057006
Hf N Cl,{},"{'Hf': 1, 'N': 1, 'Cl': 1}",25.5,0.0,,,10.7566/jpsj.88.104709
Rh In 2,{},"{'Rh': 1, 'In': 2}",2.2,1.63,,,10.1103/physrevlett.91.137001
Ba 0.6 K 0.4 Fe 2 As 2,{},"{'Ba': 0.6, 'K': 0.4, 'Fe': 2, 'As': 2}",36.0,0.0,,,10.1088/0953-8984/23/9/094203
C 60,{},{'C': 60},60.0,0.0,,,10.1143/jpsj.53.2181
Y Ba 2 Cu 3 O 6+x,{'x': []},,64.0,0.0,,,10.1103/physrevb.60.3629
Fe Se,{},"{'Fe': 1, 'Se': 1}",50.0,0.0,,,10.1088/2053-1591/3/7/076002
Fe Se,{},"{'Fe': 1, 'Se': 1}",100.0,0.0,,,10.1088/2053-1591/3/7/076002
Sr Ti O 3,{},"{'Sr': 1, 'Ti': 1, 'O': 3}",100.0,0.0,thin films,,10.1088/2053-1591/3/7/076002
Ba 0.6 K 0.4 Fe 2 As 2,{},"{'Ba': 0.6, 'K': 0.4, 'Fe': 2, 'As': 2}",38.1,0.0,single crystals,,10.1103/physrevb.86.024515
Fe Se 0.5 Te 0.5,{},"{'Fe': 1, 'Se': 0.5, 'Te': 0.5}",14.0,0.0,,,10.1088/0953-2048/25/9/095002
Fe Se,{},"{'Fe': 1, 'Se': 1}",8.0,8.0,,,10.1088/0953-2048/25/9/095002
Ba 0.5 Sr 0.5 Fe 2 (As 1-x P x) 2,{'x': []},,29.0,0.0,,,
Sr 2 Ru O 4,{},"{'Sr': 2, 'Ru': 1, 'O': 4}",3.0,0.0,,,10.1103/physrevlett.87.037003
Sr 2 Ru O 4,{},"{'Sr': 2, 'Ru': 1, 'O': 4}",1.5,0.0,,,10.1103/physrevlett.87.037003
Sr 2 Ru O 4,{},"{'Sr': 2, 'Ru': 1, 'O': 4}",3.0,0.0,single crystal,,10.1103/physrevlett.87.037003
Li,{},{'Li': 1},20.0,0.0,,,10.1016/j.physc.2011.10.006
Y,{},{'Y': 1},19.5,0.0,,,10.1016/j.physc.2011.10.006
Ca,{},{'Ca': 1},25.0,0.0,,,10.1016/j.physc.2011.10.006
(Ba K) Fe 2 As 2,{},"{'Ba': 1, 'K': 1, 'Fe': 2, 'As': 2}",40.0,0.0,,,10.7566/jpsj.85.044707
Nb 3 Sn,{},"{'Nb': 3, 'Sn': 1}",4.2,0.0,,,10.1088/1361-6668/aa9912
Mg B 2,{},"{'Mg': 1, 'B': 2}",39.0,0.0,,,10.1016/s0921-4534(01)00424-5
Mg B 1.8 C 0.2,{},"{'Mg': 1, 'B': 1.8, 'C': 0.2}",33.0,0.0,,,10.1016/s0921-4534(01)00424-5
Mg B 2,{},"{'Mg': 1, 'B': 2}",38.8,0.0,,,10.1016/s0921-4534(01)00424-5
Fe Se,{},"{'Fe': 1, 'Se': 1}",8.0,0.0,,,10.1088/0953-8984/24/26/265701
Fe 1-y Te 1-x Se x,"{'x': [0.8], 'y': []}",,14.0,0.0,,,10.1088/0953-8984/24/26/265701
Fe Te 0.5 Se 0.5,{},"{'Fe': 1, 'Te': 0.5, 'Se': 0.5}",26.2,20.0,,,10.1088/0953-8984/24/26/265701
Fe Se,{},"{'Fe': 1, 'Se': 1}",36.7,89.0,,,10.1088/0953-8984/24/26/265701
Nb,{},{'Nb': 1},8.5,10.0,thin film,,10.1063/1.4966222
La O Fe P,{},"{'La': 1, 'O': 1, 'Fe': 1, 'P': 1}",3.2,0.0,,,10.1088/0953-2048/22/1/015005
La O 1-x F x Fe As,{'x': []},,40.0,0.0,,,10.1088/0953-2048/22/1/015005
Sn 1-x Ag x Te,{'x': []},,2.0,0.0,,,10.1103/physrevb.97.220502
(Pb 0.5 Sn 0.5) 1-x In x Te,{'x': [0.3]},"{'Pb': 0.35, 'Sn': 0.35, 'In': 0.3, 'Te': 1}",4.7,0.0,,,10.1103/physrevb.97.220502
Fe Se,{},"{'Fe': 1, 'Se': 1}",9.0,0.0,Bulk,,
Sr Ti O 3,{},"{'Sr': 1, 'Ti': 1, 'O': 3}",65.0,0.0,,,
K x Fe 2-y Se 2,"{'x': [], 'y': []}",,48.0,0.0,,,10.1038/srep04585
Cs x Fe 2-y Se 2,"{'x': [], 'y': []}",,48.0,0.0,,,10.1038/srep04585
Rb x Fe 2-y Se 2,"{'x': [], 'y': []}",,48.0,0.0,,,10.1038/srep04585
Tl x Fe 2-y Se 2,"{'x': [], 'y': []}",,48.0,0.0,,,10.1038/srep04585
K x Fe 2-y Se 2,"{'x': [], 'y': []}",,32.0,0.0,,,10.1038/srep04585
Cs x Fe 2-y Se 2,"{'x': [], 'y': []}",,32.0,0.0,,,10.1038/srep04585
Rb x Fe 2-y Se 2,"{'x': [], 'y': []}",,32.0,0.0,,,10.1038/srep04585
Tl x Fe 2-y Se 2,"{'x': [], 'y': []}",,32.0,0.0,,,10.1038/srep04585
Fe Se,{},"{'Fe': 1, 'Se': 1}",65.0,0.0,,,10.1038/srep04585
Fe Se,{},"{'Fe': 1, 'Se': 1}",8.0,0.0,,,10.1038/srep04585
La (O 1-x F x) Fe As,{'x': [0.05]},"{'La': 1, 'O': 0.95, 'F': 0.05, 'Fe': 1, 'As': 1}",26.0,0.0,,,
S Cd,{},"{'S': 1, 'Cd': 1}",1.0,0.0,,,10.1007/978-3-540-76672-8_12
Ce Co In 5,{},"{'Ce': 1, 'Co': 1, 'In': 5}",2.3,0.0,,,10.1088/1742-6596/391/1/012043
K 3,{},{'K': 3},5.0,0.0,,,10.1088/1367-2630/15/11/113030
K 3,{},{'K': 3},18.0,0.0,,,10.1088/1367-2630/15/11/113030
K 3,{},{'K': 3},15.0,0.0,,,10.1088/1367-2630/15/11/113030
Tl 2 Mn 2 O 7,{},"{'Tl': 2, 'Mn': 2, 'O': 7}",120.0,0.0,,,10.1103/physrevb.64.180409
Tl 2 Mn 2 O 7,{},"{'Tl': 2, 'Mn': 2, 'O': 7}",120.0,2.0,,,10.1103/physrevb.64.180409
S,{},{'S': 1},203.0,250.0,,,10.1088/0031-8949/85/03/035704
Fe Se,{},"{'Fe': 1, 'Se': 1}",35.0,8.0,,,10.1103/physrevb.95.165120
Fe Se 1-δ,{'δ': []},,35.0,0.0,,,10.1103/physrevb.95.165120
Sr Ti O 3,{},"{'Sr': 1, 'Ti': 1, 'O': 3}",109.0,0.0,,,10.1103/physrevb.95.165120
Hg Ba 2 Cu O 4+δ,{'δ': []},,45.0,0.0,,,10.1103/physrevb.95.165120
Ca Fe 2 As 2,{},"{'Ca': 1, 'Fe': 2, 'As': 2}",45.0,0.0,,,10.1103/physrevb.95.165120
H 2 S,{},"{'H': 2, 'S': 1}",190.0,170.0,,,10.1088/0953-2048/28/8/085018
(Bi 1-y Pb y) 2 Sr 2 Cu O 6+x,"{'x': [], 'y': []}",,15.0,0.0,,,10.1080/00018730802567505
Fe Se 0.25 Te 0.75,{},"{'Fe': 1, 'Se': 0.25, 'Te': 0.75}",14.0,0.0,polycrystalline,,10.1143/jpsj.78.113701
La Fe As O 0.93 F 0.07,{},"{'La': 1, 'Fe': 1, 'As': 1, 'O': 0.93, 'F': 0.07}",25.0,0.0,,,10.1143/jpsj.78.113701
(Ba 0.55 K 0.45) Fe 2 As 2,{},"{'Ba': 0.55, 'K': 0.45, 'Fe': 2, 'As': 2}",32.0,0.0,,,10.1143/jpsj.78.113701
Fe Se 0.25 Te 0.75,{},"{'Fe': 1, 'Se': 0.25, 'Te': 0.75}",14.0,0.0,,,10.1143/jpsj.78.113701
La Fe As O 1-x F x,{'x': []},,43.0,0.0,,,10.1143/jpsj.78.113701
S C,{},"{'S': 1, 'C': 1}",0.1,0.0,,,
Bi 2 Sr 1.2 La 0.8 Cu O 6+δ,{'δ': []},,15.0,0.0,,,10.1038/nmat4295
Bi 2 Sr 1.2 La 0.8 Cu O 6+δ,{'δ': []},,15.0,0.0,crystal,,10.1038/nmat4295
Bi 2 Sr 2 Cu O 6,{},"{'Bi': 2, 'Sr': 2, 'Cu': 1, 'O': 6}",15.0,0.0,,,10.1038/nmat4295
Ba Fe 1.86 Co 0.14 As 2,{},"{'Ba': 1, 'Fe': 1.86, 'Co': 0.14, 'As': 2}",24.0,0.0,,,10.1143/jpsj.78.123706
La O 1-x F x Fe As,{'x': [0.05]},"{'La': 1, 'O': 0.95, 'F': 0.05, 'Fe': 1, 'As': 1}",26.0,0.0,,,10.1209/0295-5075/84/27010
Ce O 1-x F x Fe As,{'x': []},,41.0,0.0,,,10.1209/0295-5075/84/27010
Sm O 1-x F x Fe As,{'x': []},,43.0,0.0,,,10.1209/0295-5075/84/27010
Cu 0.27 Bi 2 Se 3,{},"{'Cu': 0.27, 'Bi': 2, 'Se': 3}",3.8,0.0,,,10.1103/physrevb.93.064505
Nd O 0.82 F 0.18 Fe As,{},"{'Nd': 1, 'O': 0.82, 'F': 0.18, 'Fe': 1, 'As': 1}",50.0,0.0,single crystals,,10.1063/1.2963361
La O Fe As,{},"{'La': 1, 'O': 1, 'Fe': 1, 'As': 1}",26.0,0.0,,,10.1063/1.2963361
Mg B 2,{},"{'Mg': 1, 'B': 2}",39.0,0.0,,,10.1103/physrevb.65.132508
Gd Sr 2 Ru Cu 2 O 8,{},"{'Gd': 1, 'Sr': 2, 'Ru': 1, 'Cu': 2, 'O': 8}",18.0,0.0,,,10.1140/epjb/e2003-00019-5
Fe Se,{},"{'Fe': 1, 'Se': 1}",77.0,0.0,monolayer,,10.1103/physrevb.89.020501
La Fe P O,{},"{'La': 1, 'Fe': 1, 'P': 1, 'O': 1}",6.0,0.0,,,10.1103/physrevb.79.094512
Nb,{},{'Nb': 1},9.2,0.0,films,,10.1103/physrevx.5.041045
C V Cs,{},"{'C': 1, 'V': 1, 'Cs': 1}",8.5,0.0,,,10.1103/physrevb.58.11676
Pb (Zr 0.2 Ti 0.8) O 3,{},"{'Pb': 1, 'Zr': 0.2, 'Ti': 0.8, 'O': 3}",0.05,0.0,,,10.1080/10408436.2012.719131
Sr Ti O 3,{},"{'Sr': 1, 'Ti': 1, 'O': 3}",0.4,0.0,,,10.1080/10408436.2012.719131
K Ta O 3,{},"{'K': 1, 'Ta': 1, 'O': 3}",10.0,0.0,,,10.1080/10408436.2012.719131
La 1.885 Ba 0.115 Cu O 4,{},"{'La': 1.885, 'Ba': 0.115, 'Cu': 1, 'O': 4}",6.0,0.05,,,10.16966/2378-7090.236
Sr 2 Ru O 4,{},"{'Sr': 2, 'Ru': 1, 'O': 4}",2.0,0.0,,,10.16966/2378-7090.236
La 1.875 Ba 0.125 Cu O 4,{},"{'La': 1.875, 'Ba': 0.125, 'Cu': 1, 'O': 4}",35.0,1.85,,,10.16966/2378-7090.236
Ba Fe 2 S 3,{},"{'Ba': 1, 'Fe': 2, 'S': 3}",24.0,10.0,,,
Nd 2-x Ce x Cu O 4,{'x': []},,28.0,0.0,thin films,,10.3390/condmat2030023
Pr 1.3-x La 0.7 Ce x Cu O 4+δ,"{'δ': [], 'x': []}",,27.0,0.0,,,10.3390/condmat2030023
Y Ba 2 Cu 3 O 7-x,{'x': []},,90.0,0.0,,,10.1016/s0009-2614(97)01449-8
Lu Ni 2 B 2 C,{},"{'Lu': 1, 'Ni': 2, 'B': 2, 'C': 1}",16.6,0.0,,,10.1103/physrevb.84.104509
Y Ni 2 B 2 C,{},"{'Y': 1, 'Ni': 2, 'B': 2, 'C': 1}",16.6,0.0,,,10.1103/physrevb.84.104509
Tm Ni 2 B 2 C,{},"{'Tm': 1, 'Ni': 2, 'B': 2, 'C': 1}",16.6,0.0,,,10.1103/physrevb.84.104509
Er Ni 2 B 2 C,{},"{'Er': 1, 'Ni': 2, 'B': 2, 'C': 1}",16.6,0.0,,,10.1103/physrevb.84.104509
Ho Ni 2 B 2 C,{},"{'Ho': 1, 'Ni': 2, 'B': 2, 'C': 1}",16.6,0.0,,,10.1103/physrevb.84.104509
Lu,{},{'Lu': 1},7.5,0.0,,,10.1103/physrevb.84.104509
Nb,{},{'Nb': 1},30.0,0.0,,,10.1063/1.5139266
Co,{},{'Co': 1},7.7,0.0,,,10.1063/1.5139266
Nb,{},{'Nb': 1},10.0,0.0,,,10.1063/1.5139266