Material,Substitutions,Composition,Tc (K),Pressure (GPa),Shape,Substrate,DOI
Ba (Fe Ni) 2 As 2,{},"{'Ba': 1, 'Fe': 2, 'Ni': 2, 'As': 2}",38.0,0.0,,,10.1038/srep33303
K Fe 2 As 2,{},"{'K': 1, 'Fe': 2, 'As': 2}",3.4,0.0,,,10.1038/srep33303
Ba 0.5 K 0.5 Fe 2 As 2,{},"{'Ba': 0.5, 'K': 0.5, 'Fe': 2, 'As': 2}",36.0,0.0,Single crystals,,10.1038/srep33303
Sr 4 V 2 O 6 (Fe As) 2,{},"{'Sr': 4, 'V': 2, 'O': 6, 'Fe': 2, 'As': 2}",37.0,0.0,,,10.7566/jpsj.82.045002
Ba Fe 2 (As 0.67 P 0.33) 2,{},"{'Ba': 1, 'Fe': 2, 'As': 1.34, 'P': 0.66}",30.0,0.0,,,
Sm 1.11 Ba 1.89 Cu 3 O 6.95,{},"{'Sm': 1.11, 'Ba': 1.89, 'Cu': 3, 'O': 6.95}",94.5,0.0,crystals,,10.1016/j.tca.2004.04.026
Na Sn 2 As 2,{},"{'Na': 1, 'Sn': 2, 'As': 2}",1.3,0.0,,,10.1103/physrevb.98.020503
Fe Se,{},"{'Fe': 1, 'Se': 1}",8.0,0.0,,,10.1103/physrevlett.120.267003
Ca K Fe 4 As 4,{},"{'Ca': 1, 'K': 1, 'Fe': 4, 'As': 4}",35.0,0.0,,,10.1103/physrevlett.120.267003
Fe Se,{},"{'Fe': 1, 'Se': 1}",9.0,0.0,monolayer films,SrTiO 3,10.1073/pnas.2020585118
Ga,{},{'Ga': 1},6.5,0.0,,,
La 1.85 Sr 0.15 Cu O 4,{},"{'La': 1.85, 'Sr': 0.15, 'Cu': 1, 'O': 4}",0.44,0.0,,,
La 1.85 Sr 0.15 Cu O 4,{},"{'La': 1.85, 'Sr': 0.15, 'Cu': 1, 'O': 4}",0.2,0.0,,,
Ba Fe 1.8 Co 0.2 As 2,{},"{'Ba': 1, 'Fe': 1.8, 'Co': 0.2, 'As': 2}",0.44,0.0,,,
Ba Fe 1.8 Co 0.2 As 2,{},"{'Ba': 1, 'Fe': 1.8, 'Co': 0.2, 'As': 2}",14.0,0.0,,,
Li Fe As,{},"{'Li': 1, 'Fe': 1, 'As': 1}",17.0,0.0,,,10.1103/physrevb.86.174519
Na C 22,{},"{'Na': 1, 'C': 22}",15.0,0.0,,,10.1209/epl/i2002-00354-1
C 70,{},{'C': 70},7.0,0.0,,,10.1209/epl/i2002-00354-1
Na C 20,{},"{'Na': 1, 'C': 20}",10.0,0.0,,,10.1209/epl/i2002-00354-1
Y Ba 2 Cu 3 O 7-x,{'x': []},,92.0,0.0,,,10.1088/0953-2048/17/8/025
Y Ba 2 Cu 3 O 7-x,{'x': []},,92.0,0.0,crystal,,10.1088/0953-2048/17/8/025
Y Ba 2 Cu 3 O 7-x,{'x': []},,41.0,0.0,,,10.1088/0953-2048/17/8/025
U Pt 3,{},"{'U': 1, 'Pt': 3}",10.0,0.0,,,10.1209/epl/i2000-00358-9
Lu 5 Ir 4 Si 10,{},"{'Lu': 5, 'Ir': 4, 'Si': 10}",3.9,0.0,,,10.1103/physrevb.68.132102
Cd 2 Re 2 O 7,{},"{'Cd': 2, 'Re': 2, 'O': 7}",1.0,0.0,,,10.1103/physrevb.70.174510
Li Ti 2 O 4,{},"{'Li': 1, 'Ti': 2, 'O': 4}",13.0,0.0,,,10.1103/physrevb.70.174510
K Os 2 O 6,{},"{'K': 1, 'Os': 2, 'O': 6}",9.6,0.0,,,10.1103/physrevb.70.174510
Gd Sr 2 Ru Cu 2 O 8,{},"{'Gd': 1, 'Sr': 2, 'Ru': 1, 'Cu': 2, 'O': 8}",6.4,0.0,,,10.1016/s0254-0584(02)00062-7
Gd Sr 2 Ru Cu 2 O 8,{},"{'Gd': 1, 'Sr': 2, 'Ru': 1, 'Cu': 2, 'O': 8}",26.5,0.0,,,10.1016/s0254-0584(02)00062-7
Fe Se,{},"{'Fe': 1, 'Se': 1}",9.0,0.0,,,10.1103/physrevlett.102.177005
Ba Fe 2-x Co x As 2,{'x': []},,22.0,0.0,,,10.1103/physrevlett.102.177005
Fe Se,{},"{'Fe': 1, 'Se': 1}",37.0,0.0,,,10.1103/physrevlett.102.177005
La Fe As O,{},"{'La': 1, 'Fe': 1, 'As': 1, 'O': 1}",28.0,0.0,,,10.1103/physrevlett.102.177005
Fe 1.01 Se,{},"{'Fe': 1.01, 'Se': 1}",9.0,0.0,,,10.1103/physrevlett.102.177005
La Fe As O 1-x F x,{'x': []},,28.0,0.0,,,10.1103/physrevlett.102.177005
Y Pt Bi,{},"{'Y': 1, 'Pt': 1, 'Bi': 1}",0.77,0.0,,,10.1103/physrevlett.116.137001
Y Pt Bi,{},"{'Y': 1, 'Pt': 1, 'Bi': 1}",1.8,0.0,,,10.1103/physrevlett.116.137001
Sr Ti O 3-x,{'x': []},,0.5,0.0,,,10.1103/physrevlett.116.137001
Cu x Bi 2 Se 3,{'x': []},,4.0,0.0,,,10.1103/physrevlett.116.137001
Ba Fe 2 S 3,{},"{'Ba': 1, 'Fe': 2, 'S': 3}",14.0,0.0,,,10.1103/physrevb.94.134509
Fe Se 4,{},"{'Fe': 1, 'Se': 4}",8.0,0.0,,,10.1103/physrevb.94.134509
H 3 S,{},"{'H': 3, 'S': 1}",203.0,170.0,,,10.1103/physrevb.94.134509
Mg B 2,{},"{'Mg': 1, 'B': 2}",38.8,0.0,,,10.1088/0953-2048/16/2/310
Mg B 2,{},"{'Mg': 1, 'B': 2}",39.0,0.0,,,10.1088/0953-2048/16/2/310
Pr Os 4 Sb 12,{},"{'Pr': 1, 'Os': 4, 'Sb': 12}",1.85,0.0,crystals,,10.1016/j.physc.2007.04.225
Nb 2 Pd 0.81 Se 5,{},"{'Nb': 2, 'Pd': 0.81, 'Se': 5}",6.5,0.0,,,10.1016/j.matchemphys.2015.08.019
Bi 4 O 4,{},"{'Bi': 4, 'O': 4}",4.5,0.0,,,10.1103/physrevb.90.054518
La O 0.5 F 0.5 Bi S 2,{},"{'La': 1, 'O': 0.5, 'F': 0.5, 'Bi': 1, 'S': 2}",10.6,0.0,,,10.1103/physrevb.90.054518
La Fe As O 1-x F x,{'x': []},,26.0,0.0,,,10.1143/jpsj.79.103706
Ba Ti O 3,{},"{'Ba': 1, 'Ti': 1, 'O': 3}",65.0,0.0,,,10.1038/ncomms10840
Fe Se,{},"{'Fe': 1, 'Se': 1}",13.0,0.0,films,,10.1038/ncomms10840
Fe Se,{},"{'Fe': 1, 'Se': 1}",8.0,0.0,,,10.1038/ncomms10840
Fe Se,{},"{'Fe': 1, 'Se': 1}",44.0,0.0,films,,10.1038/ncomms10840
Fe Se 0.93 S 0.07,{},"{'Fe': 1, 'Se': 0.93, 'S': 0.07}",9.5,0.0,single crystal,,10.1038/ncomms10840
Ba 0.6 K 0.4 Fe 2 As 2,{},"{'Ba': 0.6, 'K': 0.4, 'Fe': 2, 'As': 2}",38.0,0.0,,,10.1088/0953-8984/21/38/382203
Eu Fe 2 As 2,{},"{'Eu': 1, 'Fe': 2, 'As': 2}",26.0,0.0,,,10.1088/0953-8984/21/38/382203
La Fe As O,{},"{'La': 1, 'Fe': 1, 'As': 1, 'O': 1}",10.0,0.0,,,10.1088/0953-8984/21/38/382203
Ta N,{},"{'Ta': 1, 'N': 1}",11.0,0.0,films,,10.1103/physrevb.96.134522
Nd 1-x Sr x Ni O 2,{'x': []},,15.0,0.0,,,
Fe Se,{},"{'Fe': 1, 'Se': 1}",8.0,0.0,,,10.1103/physrevb.98.094509
Sr Ti O 3,{},"{'Sr': 1, 'Ti': 1, 'O': 3}",70.0,0.0,,,10.1103/physrevb.98.094509
Fe Se,{},"{'Fe': 1, 'Se': 1}",11.0,0.0,,,10.1103/physrevb.98.094509
Mo Re,{},"{'Mo': 1, 'Re': 1}",8.6,0.0,thin films,,10.1088/2053-1583/3/3/031002
Sr Ru O,{},"{'Sr': 1, 'Ru': 1, 'O': 1}",93.0,0.0,,,
Mg C Ni,{},"{'Mg': 1, 'C': 1, 'Ni': 1}",8.0,0.0,,,
K Os 2 O 6,{},"{'K': 1, 'Os': 2, 'O': 6}",9.5,0.0,,,10.1088/0953-8984/16/40/002
Ca (Si 0.5 Al 0.5) 2,{},"{'Ca': 1, 'Si': 1.0, 'Al': 1.0}",7.7,0.0,,,10.1088/0953-8984/16/40/002
Mg B 2,{},"{'Mg': 1, 'B': 2}",39.0,0.0,,,10.1088/0953-8984/16/40/002
La Fe As O 1-x F x,{'x': []},,55.0,0.0,,,10.1063/1.3671109
Sr 0.6 K 0.4 Fe 2 As 2,{},"{'Sr': 0.6, 'K': 0.4, 'Fe': 2, 'As': 2}",36.5,0.0,,,10.1063/1.3671109
Bi 2 Sr 2 Ca Cu 2 O 8,{},"{'Bi': 2, 'Sr': 2, 'Ca': 1, 'Cu': 2, 'O': 8}",90.0,0.0,,,10.1103/physrevlett.111.246401
Sn O,{},"{'Sn': 1, 'O': 1}",1.4,9.0,,,10.1088/0953-2048/25/8/084018
Fe Se,{},"{'Fe': 1, 'Se': 1}",8.0,0.0,,,10.1088/0953-2048/25/8/084018
Sm Fe As O,{},"{'Sm': 1, 'Fe': 1, 'As': 1, 'O': 1}",55.0,0.0,,,10.1088/0953-2048/25/8/084018
La Fe As O 1-x F x,{'x': []},,25.0,0.0,thin films,,10.1088/0953-2048/23/2/022002
La Fe As O 1-x F x,{'x': []},,25.0,0.0,film,,10.1088/0953-2048/23/2/022002
N Ts,{},"{'N': 1, 'Ts': 1}",12.0,0.0,,,10.1143/jpsj.76.033702
N Ts,{},"{'N': 1, 'Ts': 1}",15.0,0.0,single-wall,,10.1143/jpsj.76.033702
Gd Co 2 B 2,{},"{'Gd': 1, 'Co': 2, 'B': 2}",26.0,0.0,,,
Ce Co In 5,{},"{'Ce': 1, 'Co': 1, 'In': 5}",2.3,0.0,,,10.1143/jpsj.75.023705
Ca Cu 2 O 8,{},"{'Ca': 1, 'Cu': 2, 'O': 8}",85.0,0.0,,,10.1023/b:josc.0000011842.21466.e5
Bi 2 Sr 2 Cu O 6,{},"{'Bi': 2, 'Sr': 2, 'Cu': 1, 'O': 6}",8.5,0.0,,,10.1023/b:josc.0000011842.21466.e5
La O 1-x F x Fe As,{'x': []},,56.0,0.0,,,10.1103/physrevb.89.054502
Na Fe 1-x Co x As,{'x': []},,11.0,0.0,,,10.1103/physrevb.89.054502
Mg B 2,{},"{'Mg': 1, 'B': 2}",8.5,0.0,,,10.1103/physrevlett.96.077003
Mg B 2,{},"{'Mg': 1, 'B': 2}",30.0,0.0,,,10.1103/physrevlett.96.077003
La Ru 2 B 2,{},"{'La': 1, 'Ru': 2, 'B': 2}",3.2,0.0,,,10.1209/0295-5075/104/17003
La Ru 2 B 2,{},"{'La': 1, 'Ru': 2, 'B': 2}",1.9,0.0,,,10.1209/0295-5075/104/17003
La 3 Ru 8 B 6,{},"{'La': 3, 'Ru': 8, 'B': 6}",3.2,0.0,,,10.1209/0295-5075/104/17003
La 1-δ Ru 3 B 2,{'δ': [0.1]},"{'La': 0.9, 'Ru': 3, 'B': 2}",1.2,0.0,,,10.1209/0295-5075/104/17003
La Ru 2,{},"{'La': 1, 'Ru': 2}",4.1,0.0,,,10.1209/0295-5075/104/17003
Sr 3 Rh 8 B 6,{},"{'Sr': 3, 'Rh': 8, 'B': 6}",3.4,0.0,,,10.1209/0295-5075/104/17003
La 3 Ru 8 B 6,{},"{'La': 3, 'Ru': 8, 'B': 6}",1.9,0.0,,,10.1209/0295-5075/104/17003
Ca 3 Rh 8 B 6,{},"{'Ca': 3, 'Rh': 8, 'B': 6}",3.4,0.0,,,10.1209/0295-5075/104/17003
Ca 3 Rh 8 B 6,{},"{'Ca': 3, 'Rh': 8, 'B': 6}",4.0,0.0,,,10.1209/0295-5075/104/17003
Y 3 Os 8 B 6,{},"{'Y': 3, 'Os': 8, 'B': 6}",5.8,0.0,,,10.1209/0295-5075/104/17003
La Ru 3 Si 2,{},"{'La': 1, 'Ru': 3, 'Si': 2}",7.8,0.0,,,10.1209/0295-5075/104/17003
Nb,{},{'Nb': 1},8.3,0.0,,,10.1103/physrevb.70.054512
Ni 1-x Co x S 2,{'x': []},,120.0,0.0,,,10.1103/physrevlett.90.196403
La O 1-x F x Fe As,{'x': []},,26.0,0.0,,,10.1103/physrevb.96.214409
Nb,{},{'Nb': 1},9.25,0.0,,,10.1103/physrevb.95.214504
Y Ni 2 B 2 C,{},"{'Y': 1, 'Ni': 2, 'B': 2, 'C': 1}",13.0,0.0,,,10.1134/s0021364013060076
Y Ni 2 B 2 C,{},"{'Y': 1, 'Ni': 2, 'B': 2, 'C': 1}",15.0,0.0,,,10.1134/s0021364013060076
Lu Ni 2 B 2 C,{},"{'Lu': 1, 'Ni': 2, 'B': 2, 'C': 1}",15.0,0.0,,,10.1134/s0021364013060076
Er Ni 2 B 2 C,{},"{'Er': 1, 'Ni': 2, 'B': 2, 'C': 1}",15.0,0.0,,,10.1134/s0021364013060076
Ho Ni 2 B 2 C,{},"{'Ho': 1, 'Ni': 2, 'B': 2, 'C': 1}",15.0,0.0,,,10.1134/s0021364013060076
K C 8,{},"{'K': 1, 'C': 8}",0.55,0.0,,,10.1016/0304-8853(94)01294-6
N 4,{},{'N': 4},1.3,0.0,,,10.1021/nl901431t
Bi,{},{'Bi': 1},7.2,0.0,,,10.1021/nl901431t
Mg B 2,{},"{'Mg': 1, 'B': 2}",39.0,0.0,,,10.1103/physrevb.64.092505
Mg B 2,{},"{'Mg': 1, 'B': 2}",39.25,0.0,,,10.1103/physrevb.64.092505
S ample C,"{'p': [], 'e': [], 'm': [], 'a': [], 'l': []}",,5.0,0.0,,,10.1002/9783527694822.ch9
Ca Fe As F,{},"{'Ca': 1, 'Fe': 1, 'As': 1, 'F': 1}",22.0,0.0,,,10.1209/0295-5075/95/17003
K 0.8 Fe 2 Se 2,{},"{'K': 0.8, 'Fe': 2, 'Se': 2}",30.0,0.0,,,10.1209/0295-5075/95/17003
Sr Fe 2 As 2,{},"{'Sr': 1, 'Fe': 2, 'As': 2}",20.0,0.0,,,10.1209/0295-5075/95/17003
Ba Fe 2 As 2,{},"{'Ba': 1, 'Fe': 2, 'As': 2}",22.0,0.0,,,10.1209/0295-5075/95/17003
La Fe As O,{},"{'La': 1, 'Fe': 1, 'As': 1, 'O': 1}",14.3,0.0,,,10.1209/0295-5075/95/17003
Fe Se,{},"{'Fe': 1, 'Se': 1}",37.0,0.0,,,10.1209/0295-5075/95/17003
Fe Se,{},"{'Fe': 1, 'Se': 1}",8.0,0.0,,,10.1103/physrevb.89.020507
Li Fe O 2,{},"{'Li': 1, 'Fe': 1, 'O': 2}",43.0,0.0,,,10.1103/physrevb.89.020507
Fe Se,{},"{'Fe': 1, 'Se': 1}",37.0,0.0,,,10.1103/physrevb.89.020507
Fe Se,{},"{'Fe': 1, 'Se': 1}",43.0,0.0,,,10.1103/physrevb.89.020507
Li Fe O 2 Fe 2 Se 2,{},"{'Li': 1, 'Fe': 3, 'O': 2, 'Se': 2}",40.0,0.0,,,10.1103/physrevb.89.020507
Ce Rh In 5,{},"{'Ce': 1, 'Rh': 1, 'In': 5}",17.5,2.7,,,10.1103/physrevb.92.195131
Y Ba 2 Cu 3 O 6+x,{'x': [0.5]},"{'Y': 1, 'Ba': 2, 'Cu': 3, 'O': 6.5}",59.0,0.0,single crystals,,10.1088/1367-2630/11/5/055060
Ca 1-x La x Fe As 2,{'x': [0.3]},"{'Ca': 0.7, 'La': 0.3, 'Fe': 1, 'As': 2}",42.0,0.0,,,10.1103/physrevb.93.054522
Cd 2 Re 2 O 7,{},"{'Cd': 2, 'Re': 2, 'O': 7}",1.1,0.0,,,10.1143/jpsj.70.2880
La 2-x Sr x Cu O 4,{'x': []},,30.0,0.0,,,10.1016/s0921-4534(03)00814-1
Y Ba 2 Cu 3 O 6.5,{},"{'Y': 1, 'Ba': 2, 'Cu': 3, 'O': 6.5}",55.0,0.0,,,10.1016/s0921-4534(03)00814-1
Y Ba 2 (Cu 1-y Co y) 3 O 7+δ,"{'δ': [], 'y': [0.013]}",,93.0,0.0,,,10.1016/s0921-4534(03)00814-1
Sr 2 Ru O 4,{},"{'Sr': 2, 'Ru': 1, 'O': 4}",1.0,0.0,,,
Y Ba 2 Cu 3 O 7,{},"{'Y': 1, 'Ba': 2, 'Cu': 3, 'O': 7}",60.0,0.0,,,10.1143/jpsj.73.2232
Mg B 2,{},"{'Mg': 1, 'B': 2}",39.0,0.0,,,10.1143/jpsj.70.2255
Mg B 2,{},"{'Mg': 1, 'B': 2}",39.0,0.0,,,10.1103/physrevb.73.014513
Mg B 2,{},"{'Mg': 1, 'B': 2}",6.0,0.0,,,10.1103/physrevb.73.014513
Mg B 2,{},"{'Mg': 1, 'B': 2}",12.0,0.0,,,10.1103/physrevb.73.014513
Mg B 2,{},"{'Mg': 1, 'B': 2}",39.0,0.0,,,10.1038/35065039
Bi 2 Sr 2 Ca 1-x Y x Cu 2 O 8+δ,"{'δ': [], 'x': []}",,81.0,0.0,,,
Bi 2 Sr 2 Ca Cu 2 O 8,{},"{'Bi': 2, 'Sr': 2, 'Ca': 1, 'Cu': 2, 'O': 8}",82.0,0.0,,,
Bi 2 Sr 2 Ca Cu 2 O 8,{},"{'Bi': 2, 'Sr': 2, 'Ca': 1, 'Cu': 2, 'O': 8}",91.0,0.0,sin- gle crystals,,
Hg Ba 2 Ca 2 Cu 3 O 8+δ,{'δ': []},,164.0,31.0,,,10.1103/physrevb.97.174508
Y Ba 2 Cu 3 O 6.73,{},"{'Y': 1, 'Ba': 2, 'Cu': 3, 'O': 6.73}",70.0,0.0,crystal,,10.1103/physrevb.97.174508
Y Ba 2 Cu 4 O 8,{},"{'Y': 1, 'Ba': 2, 'Cu': 4, 'O': 8}",80.0,0.0,,,10.1103/physrevb.97.174508
Bi 2 Se 3,{},"{'Bi': 2, 'Se': 3}",3.8,0.0,single crystal,,10.1103/physrevb.86.144508
Nb N,{},"{'Nb': 1, 'N': 1}",6.0,0.0,films,,10.1103/physrevb.86.144508
Bi 2 Sr 2 Cu O 6,{},"{'Bi': 2, 'Sr': 2, 'Cu': 1, 'O': 6}",30.0,0.0,,,10.1007/978-3-642-00712-5_5
Pr Ru 4 Sb 12,{},"{'Pr': 1, 'Ru': 4, 'Sb': 12}",1.0,0.0,,,10.1103/physrevb.70.113103
Fe Te 0.35 Se 0.65,{},"{'Fe': 1, 'Te': 0.35, 'Se': 0.65}",14.0,0.0,,,10.1103/physrevb.84.052506
Fe Te 1-x Se x,{'x': []},,14.0,0.0,,,10.1103/physrevb.84.052506
Cd 2 Re 2 O 7,{},"{'Cd': 2, 'Re': 2, 'O': 7}",1.0,0.0,,,10.1016/s0921-4526(02)02621-2
Nb N,{},"{'Nb': 1, 'N': 1}",20.0,0.0,thin films,,
Bi 2 Sr 2 Ca Cu 2 O 8,{},"{'Bi': 2, 'Sr': 2, 'Ca': 1, 'Cu': 2, 'O': 8}",92.0,0.0,,,10.1007/s11467-016-0595-0
Bi 2 Sr 2 Ca Cu 2 O 8,{},"{'Bi': 2, 'Sr': 2, 'Ca': 1, 'Cu': 2, 'O': 8}",50.0,0.0,,,10.1007/s11467-016-0595-0
Al 1-x Mg x B 2,{'x': []},,39.0,0.0,,,
Mg B 2,{},"{'Mg': 1, 'B': 2}",52.0,0.0,,,
Zr 0.13 Mo 0.87 B 2,{},"{'Zr': 0.13, 'Mo': 0.87, 'B': 2}",3.87,0.0,,,
Mg B 2,{},"{'Mg': 1, 'B': 2}",39.0,0.0,,,10.1088/0953-2048/19/2/004
Nd (O F) Bi S 2,{},"{'Nd': 1, 'O': 1, 'F': 1, 'Bi': 1, 'S': 2}",4.0,0.0,,,10.1103/physrevb.90.054512
K Os 2 O 6,{},"{'K': 1, 'Os': 2, 'O': 6}",7.5,0.0,,,10.1143/jpsj.80.094712
Cs,{},{'Cs': 1},6.4,0.0,,,10.1143/jpsj.80.094712
Ba 0.68 K 0.32 Fe 2 As 2,{},"{'Ba': 0.68, 'K': 0.32, 'Fe': 2, 'As': 2}",38.5,0.0,single-crystal,,10.1142/s0217984912300086
Nd Ni O 2,{},"{'Nd': 1, 'Ni': 1, 'O': 2}",15.0,0.0,,,
Bi 2 Sr 2 Ca Cu 2 O 8,{},"{'Bi': 2, 'Sr': 2, 'Ca': 1, 'Cu': 2, 'O': 8}",45.0,0.0,,,10.1038/nphys4157
Bi 2 Sr 2 Ca Cu 2 O 8,{},"{'Bi': 2, 'Sr': 2, 'Ca': 1, 'Cu': 2, 'O': 8}",50.0,0.0,,,10.1038/nphys4157
Bi 2 Sr 2 Ca Cu 2 O 8,{},"{'Bi': 2, 'Sr': 2, 'Ca': 1, 'Cu': 2, 'O': 8}",40.0,0.0,crystal,,10.1038/nphys4157
(Zr Hf) N Cl,{},"{'Zr': 1, 'Hf': 1, 'N': 1, 'Cl': 1}",25.0,0.0,,,10.1103/physrevb.68.144519
Pu Co Ga 5,{},"{'Pu': 1, 'Co': 1, 'Ga': 5}",14.5,0.0,crystal,,10.1038/ncomms1785
Pu Co Ga 5,{},"{'Pu': 1, 'Co': 1, 'Ga': 5}",18.5,0.0,single crystals,,10.1038/ncomms1785
Pu Co Ga 5,{},"{'Pu': 1, 'Co': 1, 'Ga': 5}",18.5,0.0,,,10.1038/ncomms1785
Mg B 2,{},"{'Mg': 1, 'B': 2}",40.0,0.0,,,10.1088/1367-2630/4/1/303
Nb Ru B,{},"{'Nb': 1, 'Ru': 1, 'B': 1}",3.1,0.0,,,10.1088/1674-1056/26/10/106201
Ce Co In 5,{},"{'Ce': 1, 'Co': 1, 'In': 5}",1.5,0.0,,,10.1038/ncomms12774
Ce Co In 5,{},"{'Ce': 1, 'Co': 1, 'In': 5}",2.3,0.0,,,10.1038/ncomms12774
Mg B 2,{},"{'Mg': 1, 'B': 2}",39.0,0.0,,,10.1016/j.physc.2004.12.001
Y Ni 2 B 2 C,{},"{'Y': 1, 'Ni': 2, 'B': 2, 'C': 1}",14.6,0.0,single crystal,,10.1103/physrevlett.93.156802
Nb Ru B,{},"{'Nb': 1, 'Ru': 1, 'B': 1}",3.1,0.0,,,10.1021/cm504449s
Y B 6,{},"{'Y': 1, 'B': 6}",7.0,0.0,,,10.1021/cm504449s
Nb Ru B,{},"{'Nb': 1, 'Ru': 1, 'B': 1}",3.0,0.0,,,10.1021/cm504449s
Mg B 2,{},"{'Mg': 1, 'B': 2}",39.0,0.0,,,10.1021/cm504449s
Sr Fe 2 As 2,{},"{'Sr': 1, 'Fe': 2, 'As': 2}",21.9,0.0,,,10.1038/s41535-017-0057-0
Sr Pt 2 As 2,{},"{'Sr': 1, 'Pt': 2, 'As': 2}",5.2,0.0,,,10.1088/0953-8984/28/16/165702
Sr Pt 2 Sb 2,{},"{'Sr': 1, 'Pt': 2, 'Sb': 2}",2.1,0.0,,,10.1088/0953-8984/28/16/165702
Cu (N C S) 2,{},"{'Cu': 1, 'N': 2, 'C': 2, 'S': 2}",9.2,0.0,,,10.1143/jpsj.73.1434
Pr Os 4 Sb 12,{},"{'Pr': 1, 'Os': 4, 'Sb': 12}",2.0,0.0,,,10.1140/epjb/e2002-00195-8
Sr 2 Ru O 4,{},"{'Sr': 2, 'Ru': 1, 'O': 4}",1.5,0.0,,,10.1103/physrevb.78.060501
Nb N,{},"{'Nb': 1, 'N': 1}",16.0,0.0,,,10.1209/0295-5075/103/47013
Pr Ba 2 Cu 3 O 7,{},"{'Pr': 1, 'Ba': 2, 'Cu': 3, 'O': 7}",85.0,0.0,single crystal,,10.1016/j.physc.2004.07.002
Pr 2 Ba 4 Cu 7 O 7,{},"{'Pr': 2, 'Ba': 4, 'Cu': 7, 'O': 7}",89.0,0.0,,,10.1016/j.physc.2004.07.002
Y 2 Ba 4 Cu 7 O 7,{},"{'Y': 2, 'Ba': 4, 'Cu': 7, 'O': 7}",92.0,0.0,,,10.1016/j.physc.2004.07.002
Ba 1-x K x Fe 2 As 2,{'x': []},,25.0,0.0,,,10.1088/0953-2048/25/8/084014
Ca Fe 2 As 2,{},"{'Ca': 1, 'Fe': 2, 'As': 2}",47.0,0.0,,,10.1088/0953-2048/25/8/084014
Ca 1-x La x Fe 2 As 2,{'x': []},,10.0,0.0,,,10.1088/0953-2048/25/8/084014
Sm O 1-x F x Fe As,{'x': []},,55.0,0.0,,,10.1088/0953-2048/25/8/084014
Ba Fe 2 As 2,{},"{'Ba': 1, 'Fe': 2, 'As': 2}",38.0,0.0,,,10.1088/0953-2048/25/8/084014
Sr Fe 2 As 2,{},"{'Sr': 1, 'Fe': 2, 'As': 2}",22.0,0.0,,,10.1088/0953-2048/25/8/084014
Pr Ba 2 Cu 3 O 7,{},"{'Pr': 1, 'Ba': 2, 'Cu': 3, 'O': 7}",90.0,0.0,,,10.1209/epl/i2002-00614-6
C 60,{},{'C': 60},40.0,0.0,,,10.1007/978-1-4020-2093-3_10
Cu (N C S) 2,{},"{'Cu': 1, 'N': 2, 'C': 2, 'S': 2}",10.0,0.0,,,10.1143/jpsj.75.051013
Tl 2 Ba 2 Cu O 6+δ,{'δ': []},,15.0,0.0,,,10.1103/physrevb.88.014523
Sn 0.6 In 0.4 Te,{},"{'Sn': 0.6, 'In': 0.4, 'Te': 1}",4.1,0.0,sin- gle crystal,,10.1103/physrevb.88.014523
V 3 Ga,{},"{'V': 3, 'Ga': 1}",16.0,0.0,alloy,,10.1103/physrevb.95.024514
K 3 C 60,{},"{'K': 3, 'C': 60}",19.0,0.0,,,10.1088/0953-8984/28/15/153001
K 3 C 60,{},"{'K': 3, 'C': 60}",40.0,0.0,,,10.1088/0953-8984/28/15/153001
Rb 3 C 60,{},"{'Rb': 3, 'C': 60}",40.0,0.0,,,10.1088/0953-8984/28/15/153001
Cs 3 C 60,{},"{'Cs': 3, 'C': 60}",40.0,0.0,,,10.1088/0953-8984/28/15/153001
Mg B 2,{},"{'Mg': 1, 'B': 2}",41.5,0.0,films,,10.1088/0953-2048/28/5/055015
Si C,{},"{'Si': 1, 'C': 1}",41.5,0.0,films,,10.1088/0953-2048/28/5/055015
Mg B 2,{},"{'Mg': 1, 'B': 2}",39.0,0.0,,,10.1088/0953-2048/28/5/055015
Y Ba 2 Cu 3 O 6.35,{},"{'Y': 1, 'Ba': 2, 'Cu': 3, 'O': 6.35}",18.0,0.0,,,10.1103/physrevb.76.224503
Y Ba 2 Cu 3 O 6.67,{},"{'Y': 1, 'Ba': 2, 'Cu': 3, 'O': 6.67}",4.0,0.0,single- crystal,,
Y Ba 2 Cu 3 O 6.67,{},"{'Y': 1, 'Ba': 2, 'Cu': 3, 'O': 6.67}",64.5,0.0,single- crystal,,
Ba 1-x K x Fe 2 As 2,{'x': []},,26.0,0.0,single crystals,,
Hg Ba 2 Cu O 4,{},"{'Hg': 1, 'Ba': 2, 'Cu': 1, 'O': 4}",90.0,0.0,,,10.1103/physrevlett.87.047003
Fe Se,{},"{'Fe': 1, 'Se': 1}",55.0,0.0,single layer,SrTiO 3,10.1103/physrevb.89.220506
Fe Se,{},"{'Fe': 1, 'Se': 1}",8.0,0.0,,,10.1103/physrevb.89.220506
Ce Fe As O 1-x F x,{'x': []},,42.0,0.0,,,10.1007/s10948-009-0499-0
Sm Fe As O 0.85 F 0.15,{},"{'Sm': 1, 'Fe': 1, 'As': 1, 'O': 0.85, 'F': 0.15}",42.0,0.0,,,10.1007/s10948-009-0499-0
Bi 2 Sr 2 Ca Cu 2 O 8+δ,{'δ': []},,56.0,0.0,,,
I V Cs,{},"{'I': 1, 'V': 1, 'Cs': 1}",8.6,0.0,,,10.1103/physrevb.98.174514
Na Al Si,{},"{'Na': 1, 'Al': 1, 'Si': 1}",7.0,0.0,,,10.1063/1.5124242
Na Al Ge,{},"{'Na': 1, 'Al': 1, 'Ge': 1}",7.0,0.0,,,10.1063/1.5124242
Na Al Si,{},"{'Na': 1, 'Al': 1, 'Si': 1}",9.0,4.8,,,10.1063/1.5124242
Bi 2 Se 3,{},"{'Bi': 2, 'Se': 3}",7.2,0.0,"films, single crystalline",,10.1038/nphys3139
Nb Se 2,{},"{'Nb': 1, 'Se': 2}",7.2,0.0,,,10.1038/nphys3139
Y Ba 2 Cu 3 O 6+x,{'x': [0.5]},"{'Y': 1, 'Ba': 2, 'Cu': 3, 'O': 6.5}",52.0,0.0,,,10.1103/physrevb.99.174515
Y Ba 2 Cu 3 O 6.45,{},"{'Y': 1, 'Ba': 2, 'Cu': 3, 'O': 6.45}",35.0,0.0,,,10.1103/physrevb.99.174515
La 1.93 Sr 0.07 Cu O 4,{},"{'La': 1.93, 'Sr': 0.07, 'Cu': 1, 'O': 4}",20.0,0.0,,,10.1103/physrevb.99.174515
La 2-x Ca 1+x Cu 2 O 6,{'x': [0.15]},"{'La': 1.85, 'Ca': 1.15, 'Cu': 2, 'O': 6}",55.0,0.0,,,10.1103/physrevb.99.174515
La Fe As O 1-x F x,{'x': []},,26.0,0.0,,,10.1103/physrevb.84.054505
Pb,{},{'Pb': 1},7.2,0.0,,,10.1088/1367-2630/15/7/073020
Hg Ba 2 Ca 2 Cu 3 O 8+δ,{'δ': []},,138.0,0.0,,,10.1088/1367-2630/15/7/073020
Cu O 2,{},"{'Cu': 1, 'O': 2}",138.0,0.0,,,10.1088/1367-2630/15/7/073020
Nb,{},{'Nb': 1},9.2,0.0,,,10.1088/1367-2630/15/7/073020
Fe Se,{},"{'Fe': 1, 'Se': 1}",75.0,0.0,film,,
La Fe Si H,{},"{'La': 1, 'Fe': 1, 'Si': 1, 'H': 1}",11.0,0.0,,,10.1103/physrevb.97.100504
Y Fe 2 Ge 2,{},"{'Y': 1, 'Fe': 2, 'Ge': 2}",2.0,0.0,,,10.1103/physrevb.97.100504
H 3 S,{},"{'H': 3, 'S': 1}",203.0,170.0,,,10.1155/2019/6795250
La Fe As O,{},"{'La': 1, 'Fe': 1, 'As': 1, 'O': 1}",27.0,0.0,,,
Ca 4 Al 2 O 6 Fe 2 As 2,{},"{'Ca': 4, 'Al': 2, 'O': 6, 'Fe': 2, 'As': 2}",27.0,0.0,,,
Ti,{},{'Ti': 1},0.4,0.0,,,10.1134/s1063783418110173
Ce Co In 5,{},"{'Ce': 1, 'Co': 1, 'In': 5}",2.3,0.0,single crystals,,10.1103/physrevlett.97.227002
La Pt Si,{},"{'La': 1, 'Pt': 1, 'Si': 1}",3.35,0.0,,,10.1016/j.intermet.2014.08.011
Ce Ir Si 3,{},"{'Ce': 1, 'Ir': 1, 'Si': 3}",1.6,0.0,,,10.1016/j.intermet.2014.08.011
La Pd Si 3,{},"{'La': 1, 'Pd': 1, 'Si': 3}",0.3,0.0,,,10.1016/j.intermet.2014.08.011
Sr Pt Ge 3,{},"{'Sr': 1, 'Pt': 1, 'Ge': 3}",1.0,0.0,,,10.1016/j.intermet.2014.08.011
Ca Ir Si 3,{},"{'Ca': 1, 'Ir': 1, 'Si': 3}",3.3,0.0,,,10.1016/j.intermet.2014.08.011
Ce Ir Ge 3,{},"{'Ce': 1, 'Ir': 1, 'Ge': 3}",1.6,0.0,,,10.1016/j.intermet.2014.08.011
La Pt Si 3,{},"{'La': 1, 'Pt': 1, 'Si': 3}",1.52,0.0,,,10.1016/j.intermet.2014.08.011
La Ir Si 3,{},"{'La': 1, 'Ir': 1, 'Si': 3}",0.77,0.0,,,10.1016/j.intermet.2014.08.011
Ce Pt 3 Si,{},"{'Ce': 1, 'Pt': 3, 'Si': 1}",0.75,0.0,,,10.1016/j.intermet.2014.08.011