Material,Substitutions,Composition,Tc (K),Pressure (GPa),Shape,Substrate,DOI
Fe Se,{},"{'Fe': 1, 'Se': 1}",77.0,0.0,,,10.1103/physrevb.91.045107
Fe Se,{},"{'Fe': 1, 'Se': 1}",77.0,0.0,"bilayer, film",,10.1103/physrevb.91.045107
Fe Se,{},"{'Fe': 1, 'Se': 1}",70.0,0.0,epitaxial films,,10.1103/physrevb.91.045107
Sr Ti O 3,{},"{'Sr': 1, 'Ti': 1, 'O': 3}",77.0,0.0,,,10.1103/physrevb.91.045107
Bi 2 Se 3,{},"{'Bi': 2, 'Se': 3}",2.5,0.0,,,10.1103/physrevb.92.020506
Sr 0.1 Bi 2 Se 3,{},"{'Sr': 0.1, 'Bi': 2, 'Se': 3}",2.9,0.0,single crystal,,10.1103/physrevb.92.020506
Sn Te,{},"{'Sn': 1, 'Te': 1}",4.5,0.0,,,10.1103/physrevb.92.020506
Sr 0.1 Bi 2 Se 3,{},"{'Sr': 0.1, 'Bi': 2, 'Se': 3}",2.94,0.0,,,10.1103/physrevb.92.020506
Sr 0.1 Bi 2 Se 3,{},"{'Sr': 0.1, 'Bi': 2, 'Se': 3}",2.67,0.0,,,10.1103/physrevb.92.020506
Ti 2 N,{},"{'Ti': 2, 'N': 1}",50.0,0.0,,,10.1088/0953-2048/27/1/015009
Ti 2 N,{},"{'Ti': 2, 'N': 1}",5.6,0.0,,,10.1088/0953-2048/27/1/015009
Ti N,{},"{'Ti': 1, 'N': 1}",50.0,0.0,,,10.1088/0953-2048/27/1/015009
La Fe As O 1-x F x,{'x': []},,26.0,0.0,,,10.1002/chin.201547217
Fe Se,{},"{'Fe': 1, 'Se': 1}",77.0,0.0,thin film,,10.1002/chin.201547217
La Fe P O 1-x F x,{'x': []},,5.0,0.0,,,10.1002/chin.201547217
Fe 1+y Se,{'y': []},,8.0,0.0,,,10.1002/chin.201547217
Fe 1+y Se,{'y': []},,37.0,0.0,,,10.1002/chin.201547217
Fe Te 0.35 Se 0.65,{},"{'Fe': 1, 'Te': 0.35, 'Se': 0.65}",14.0,0.0,,,10.1002/chin.201547217
Gd 1-x Th x Fe As O,{'x': []},,56.0,0.0,,,10.1002/chin.201547217
Sm Fe As O 0.85,{},"{'Sm': 1, 'Fe': 1, 'As': 1, 'O': 0.85}",55.0,0.0,,,10.1103/physrevb.94.224505
Pr Ba 2 Cu 3 O 7,{},"{'Pr': 1, 'Ba': 2, 'Cu': 3, 'O': 7}",15.0,0.0,,,10.1103/physrevb.94.224505
Eu Fe As O 0.85 F 0.15,{},"{'Eu': 1, 'Fe': 1, 'As': 1, 'O': 0.85, 'F': 0.15}",55.0,0.0,,,10.1103/physrevb.94.224505
Mg B 2,{},"{'Mg': 1, 'B': 2}",24.0,0.0,,,10.1103/physrevb.94.144506
Mg B 2,{},"{'Mg': 1, 'B': 2}",39.0,0.0,,,10.1103/physrevb.94.144506
U 2,{},{'U': 2},56.0,0.0,,,
Al,{},{'Al': 1},1.2,0.0,thin films,,
Fe Se,{},"{'Fe': 1, 'Se': 1}",9.0,0.0,,,10.1103/physrevlett.124.107001
Li 2 Pt Si 3,{},"{'Li': 2, 'Pt': 1, 'Si': 3}",1.8,0.0,,,10.7566/jpsj.83.103703
Li 2 Ir Si 3,{},"{'Li': 2, 'Ir': 1, 'Si': 3}",3.7,0.0,,,10.7566/jpsj.83.103703
Li 2 Ir Si 3,{},"{'Li': 2, 'Ir': 1, 'Si': 3}",8.0,0.0,,,10.7566/jpsj.83.103703
Li 2 Rh Si 3,{},"{'Li': 2, 'Rh': 1, 'Si': 3}",2.2,0.0,,,10.7566/jpsj.83.103703
Ba 0.55 K 0.45 Fe 2 As 2,{},"{'Ba': 0.55, 'K': 0.45, 'Fe': 2, 'As': 2}",7.2,0.0,,,10.7566/jpsj.83.103703
Ba 8 Si 46,{},"{'Ba': 8, 'Si': 46}",8.0,0.0,,,10.7566/jpsj.83.103703
Ir Si 3,{},"{'Ir': 1, 'Si': 3}",3.7,0.0,,,10.7566/jpsj.83.103703
Nb 3 Sn,{},"{'Nb': 3, 'Sn': 1}",18.0,0.0,,,10.7566/jpsj.83.103703
Mg B 2,{},"{'Mg': 1, 'B': 2}",39.0,0.0,,,10.7566/jpsj.83.103703
La 1.4 Sr 1.6 Mn 2 O 7,{},"{'La': 1.4, 'Sr': 1.6, 'Mn': 2, 'O': 7}",90.0,0.0,,,10.1209/epl/i2001-00452-6
Bi 2 Sr 2 Ca Cu 2 O 8,{},"{'Bi': 2, 'Sr': 2, 'Ca': 1, 'Cu': 2, 'O': 8}",93.0,0.0,,,10.1209/epl/i2001-00452-6
La 1-x Sr x Mn O 3,{'x': []},,90.0,0.0,,,10.1209/epl/i2001-00452-6
Bi 2 Sr 2 Ca Cu 2 O 8,{},"{'Bi': 2, 'Sr': 2, 'Ca': 1, 'Cu': 2, 'O': 8}",51.0,0.0,single crystal,,10.1209/epl/i2001-00452-6
Bi 2 Sr 2 Ca Cu 2 O 8,{},"{'Bi': 2, 'Sr': 2, 'Ca': 1, 'Cu': 2, 'O': 8}",87.5,0.0,,,10.1209/epl/i2001-00452-6
Bi 2 Sr 2 Ca Cu 2 O 8,{},"{'Bi': 2, 'Sr': 2, 'Ca': 1, 'Cu': 2, 'O': 8}",88.0,0.0,single crystal,,10.1209/epl/i2001-00452-6
Ce Ir In 5,{},"{'Ce': 1, 'Ir': 1, 'In': 5}",0.4,0.0,,,10.1209/epl/i2001-00452-6
U Ru 2 Si 2,{},"{'U': 1, 'Ru': 2, 'Si': 2}",1.2,0.0,,,10.1209/epl/i2001-00452-6
B S Co O,{},"{'B': 1, 'S': 1, 'Co': 1, 'O': 1}",3.2,0.0,,,10.1209/epl/i2001-00452-6
Bi 2 Sr 2 Ca Cu 2 O 8,{},"{'Bi': 2, 'Sr': 2, 'Ca': 1, 'Cu': 2, 'O': 8}",80.0,0.0,thin film,,10.1209/epl/i2001-00452-6
Bi 2 Sr 2 Ca Cu 2 O 8,{},"{'Bi': 2, 'Sr': 2, 'Ca': 1, 'Cu': 2, 'O': 8}",93.0,0.0,single crystals,,10.1209/epl/i2001-00452-6
Bi 2 Sr 2 Ca Cu 2 O 8,{},"{'Bi': 2, 'Sr': 2, 'Ca': 1, 'Cu': 2, 'O': 8}",83.0,0.0,,,10.1209/epl/i2001-00452-6
Bi 2 Sr 2 Ca Cu 2 O 8,{},"{'Bi': 2, 'Sr': 2, 'Ca': 1, 'Cu': 2, 'O': 8}",83.0,0.0,single crystal,,10.1209/epl/i2001-00452-6
U Pd 2 Al 3,{},"{'U': 1, 'Pd': 2, 'Al': 3}",2.0,0.0,,,10.1209/epl/i2001-00452-6
Bi 2 Sr 2 Cu O 6,{},"{'Bi': 2, 'Sr': 2, 'Cu': 1, 'O': 6}",29.0,0.0,single crystals,,10.1209/epl/i2001-00452-6
Bi 2 Sr 2 Ca Cu 2 O 8,{},"{'Bi': 2, 'Sr': 2, 'Ca': 1, 'Cu': 2, 'O': 8}",91.0,0.0,,,10.1209/epl/i2001-00452-6
Fe Se 0.5 Te 0.5,{},"{'Fe': 1, 'Se': 0.5, 'Te': 0.5}",12.5,0.0,,,
Li Fe As,{},"{'Li': 1, 'Fe': 1, 'As': 1}",15.0,0.0,,,
Nd Fe As O 0.82 F 0.18,{},"{'Nd': 1, 'Fe': 1, 'As': 1, 'O': 0.82, 'F': 0.18}",51.0,0.0,,,10.1088/0953-2048/25/11/113001
(Ba K) Fe 2 As 2,{},"{'Ba': 1, 'K': 1, 'Fe': 2, 'As': 2}",5.0,0.0,single crystals,,10.1088/0953-2048/25/11/113001
La Fe As O 1-x F x,{'x': []},,26.0,0.0,,,10.1088/0953-2048/25/11/113001
Nd Fe As O 0.82 F 0.18,{},"{'Nd': 1, 'Fe': 1, 'As': 1, 'O': 0.82, 'F': 0.18}",47.0,0.0,single crystals,,10.1088/0953-2048/25/11/113001
Mg B 2,{},"{'Mg': 1, 'B': 2}",39.0,0.0,,,10.1088/0953-2048/25/11/113001
Mg B 2,{},"{'Mg': 1, 'B': 2}",20.0,0.0,,,10.1088/0953-2048/25/11/113001
Fe Se,{},"{'Fe': 1, 'Se': 1}",15.1,0.0,,,10.1088/0953-2048/25/11/113001
Sm O 0.85 F 0.15 Fe As,{},"{'Sm': 1, 'O': 0.85, 'F': 0.15, 'Fe': 1, 'As': 1}",46.0,0.0,,,10.1088/0953-2048/25/11/113001
Sm Fe As O 0.8 F 0.2,{},"{'Sm': 1, 'Fe': 1, 'As': 1, 'O': 0.8, 'F': 0.2}",56.1,0.0,polycrystalline,,10.1088/0953-2048/25/11/113001
Ba (Fe 1-x Co x) 2 As 2,{'x': []},,38.0,0.0,,,10.1103/physrevb.85.235133
(Tl Rb) x Fe 2-y Se 2,"{'x': [], 'y': []}",,32.0,0.0,,,10.1007/s11467-011-0229-5
K x Fe 2 Se 2,{'x': []},,30.0,0.0,,,10.1007/s11467-011-0229-5
K 0.8 Fe Se 2,{},"{'K': 0.8, 'Fe': 1, 'Se': 2}",31.0,0.0,,,10.1007/s11467-011-0229-5
K x Fe 2-y Se 2,"{'x': [], 'y': []}",,31.0,0.0,,,10.1007/s11467-011-0229-5
Cs x Fe 2-y Se 2,"{'x': [], 'y': []}",,31.0,0.0,,,10.1007/s11467-011-0229-5
Rb x Fe 2-y Se 2,"{'x': [], 'y': []}",,31.0,0.0,,,10.1007/s11467-011-0229-5
Tl x Fe 2-y Se 2,"{'x': [], 'y': []}",,31.0,0.0,,,10.1007/s11467-011-0229-5
K x Fe 2-y Se 2,"{'x': [], 'y': []}",,30.0,0.0,,,10.1007/s11467-011-0229-5
Cs x Fe 2-y Se 2,"{'x': [], 'y': []}",,30.0,0.0,,,10.1007/s11467-011-0229-5
Rb x Fe 2-y Se 2,"{'x': [], 'y': []}",,30.0,0.0,,,10.1007/s11467-011-0229-5
Tl x Fe 2-y Se 2,"{'x': [], 'y': []}",,30.0,0.0,,,10.1007/s11467-011-0229-5
K x Fe 2-y Se 2,"{'x': [], 'y': []}",,40.0,0.0,,,10.1007/s11467-011-0229-5
Cs x Fe 2-y Se 2,"{'x': [], 'y': []}",,40.0,0.0,,,10.1007/s11467-011-0229-5
Rb x Fe 2-y Se 2,"{'x': [], 'y': []}",,40.0,0.0,,,10.1007/s11467-011-0229-5
Tl x Fe 2-y Se 2,"{'x': [], 'y': []}",,40.0,0.0,,,10.1007/s11467-011-0229-5
Sr 2 V Fe As O 3,{},"{'Sr': 2, 'V': 1, 'Fe': 1, 'As': 1, 'O': 3}",36.5,0.0,,,10.1103/physrevb.89.184506
La Fe As O 1-x F x,{'x': []},,26.0,0.0,,,10.1103/physrevb.89.184506
Y Ba 2 Cu 3 O 7,{},"{'Y': 1, 'Ba': 2, 'Cu': 3, 'O': 7}",78.6,0.0,thin film,,10.1103/physrevb.94.054504
La O 1-x F x Fe As,{'x': []},,26.0,0.0,,,
Ce O 1-x F x Fe As,{'x': []},,40.0,0.0,,,
La O 1-x F x Ni As,{'x': []},,4.0,0.0,,,
Pr O 1-x F x Fe As,{'x': []},,52.0,0.0,,,
La O 1-x F x Fe As,{'x': []},,40.0,0.0,,,
Mg B 2,{},"{'Mg': 1, 'B': 2}",39.0,0.0,,,10.1142/s0217984903005688
Bi 2 Sr 2 Ca Cu 2 O 8+δ,{'δ': []},,68.0,0.0,single crystal,,10.1142/s0217984920400011
Y Ba 2 Cu 3 O 6.5,{},"{'Y': 1, 'Ba': 2, 'Cu': 3, 'O': 6.5}",61.0,0.0,single crystal,,10.1142/s0217984920400011
U Ru 2 Si 2,{},"{'U': 1, 'Ru': 2, 'Si': 2}",1.5,0.0,,,10.1088/0953-8984/21/11/113101
K 1-x Fe 2-y Se 2,"{'x': [], 'y': []}",,32.0,0.0,,,10.1103/physrevb.89.094514
Rb 1-x Fe 2-y Se 2,"{'x': [], 'y': []}",,32.0,0.0,,,10.1103/physrevb.89.094514
Ba Ti O 3,{},"{'Ba': 1, 'Ti': 1, 'O': 3}",0.15,0.0,,,10.1038/srep07321
Sn,{},{'Sn': 1},3.68,0.0,,,10.1038/srep07321
Sr Pt As,{},"{'Sr': 1, 'Pt': 1, 'As': 1}",4.2,0.0,,,10.1016/j.physc.2011.07.009
Sr Pt 2 As 2,{},"{'Sr': 1, 'Pt': 2, 'As': 2}",5.2,0.0,,,10.1016/j.physc.2011.07.009
La O 1-x F x Fe P,{'x': []},,7.0,0.0,,,10.1103/physrevlett.100.226402
S C 2 H Nb Se 2,{},"{'S': 1, 'C': 2, 'H': 1, 'Nb': 1, 'Se': 2}",7.2,0.0,single crystal,,10.1103/physrevb.77.134518
Sr 2 Ru O 4,{},"{'Sr': 2, 'Ru': 1, 'O': 4}",1.5,0.0,,,10.1103/physrevb.93.064502
Ce Co In 5,{},"{'Ce': 1, 'Co': 1, 'In': 5}",2.3,0.0,,,10.1103/physrevb.93.064502
Tl 2 Ba 2 Cu O 6+δ,{'δ': []},,15.0,0.0,,,10.1103/physrevb.93.064502
La Fe As O,{},"{'La': 1, 'Fe': 1, 'As': 1, 'O': 1}",26.0,0.0,,,10.1016/j.cossms.2013.05.003
(Pb Se) 5 (Bi 2 Se 3) 6,{},"{'Pb': 5, 'Se': 23, 'Bi': 12}",3.0,0.0,,,
Bi 2 Se 3,{},"{'Bi': 2, 'Se': 3}",3.8,0.0,,,
Sr 2 Ru O 4,{},"{'Sr': 2, 'Ru': 1, 'O': 4}",3.5,0.0,,,
Sn Te,{},"{'Sn': 1, 'Te': 1}",2.0,0.0,,,
Bi 2 Sr 2 Ca Cu 2 O 8,{},"{'Bi': 2, 'Sr': 2, 'Ca': 1, 'Cu': 2, 'O': 8}",82.5,0.0,,,
La Sb 2,{},"{'La': 1, 'Sb': 2}",0.4,0.0,,,10.1088/1742-6596/273/1/012151
Y Ni 2 B 2 C,{},"{'Y': 1, 'Ni': 2, 'B': 2, 'C': 1}",15.45,0.0,,,
K Fe 2 As 2,{},"{'K': 1, 'Fe': 2, 'As': 2}",3.95,0.0,,,10.1103/physrevlett.109.087001
Y Ru B 2,{},"{'Y': 1, 'Ru': 1, 'B': 2}",7.6,0.0,,,
Lu Ru B 2,{},"{'Lu': 1, 'Ru': 1, 'B': 2}",7.6,0.0,,,
Y Ba 2 Cu 4 O 7,{},"{'Y': 1, 'Ba': 2, 'Cu': 4, 'O': 7}",80.0,0.0,single crystals,,10.1103/physrevb.82.020514
Y Ba 2 Cu 4 O 8,{},"{'Y': 1, 'Ba': 2, 'Cu': 4, 'O': 8}",80.0,0.0,,,10.1103/physrevb.82.020514
Bi 2 Sr 2 Ca Cu 2 O 8+x,{'x': []},,93.0,0.0,single-crystal,,
Li Fe As,{},"{'Li': 1, 'Fe': 1, 'As': 1}",18.0,0.0,,,10.1209/0295-5075/91/67002
Li Fe As,{},"{'Li': 1, 'Fe': 1, 'As': 1}",17.7,0.0,single crystal,,10.1209/0295-5075/91/67002
Ce Fe As O,{},"{'Ce': 1, 'Fe': 1, 'As': 1, 'O': 1}",55.0,0.0,,,10.1209/0295-5075/91/67002
Pr Fe As O,{},"{'Pr': 1, 'Fe': 1, 'As': 1, 'O': 1}",55.0,0.0,,,10.1209/0295-5075/91/67002
Nd Fe As O,{},"{'Nd': 1, 'Fe': 1, 'As': 1, 'O': 1}",55.0,0.0,,,10.1209/0295-5075/91/67002
Sm Fe As O,{},"{'Sm': 1, 'Fe': 1, 'As': 1, 'O': 1}",55.0,0.0,,,10.1209/0295-5075/91/67002
Sr Fe 2 As 2,{},"{'Sr': 1, 'Fe': 2, 'As': 2}",20.0,0.0,"single crystal, thin film",,10.1209/0295-5075/91/67002
Nb N,{},"{'Nb': 1, 'N': 1}",12.8,0.0,,,
Nb N,{},"{'Nb': 1, 'N': 1}",3.0,0.0,,,
Nb 3 N 5,{},"{'Nb': 3, 'N': 5}",18.0,0.0,,,
Ba Fe 2 (As 0.7 P 0.3) 2,{},"{'Ba': 1, 'Fe': 2, 'As': 1.4, 'P': 0.6}",30.0,0.0,,,10.1103/physrevb.92.144503
Ba Fe 2 (As 0.7 P 0.3) 2,{},"{'Ba': 1, 'Fe': 2, 'As': 1.4, 'P': 0.6}",30.0,0.0,Single crystals,,10.1103/physrevb.92.144503
Nb,{},{'Nb': 1},4.0,0.0,,,10.1103/physrevlett.107.043901
La 1.9 Sr 0.1 Cu O 4,{},"{'La': 1.9, 'Sr': 0.1, 'Cu': 1, 'O': 4}",26.0,0.0,film,,10.1038/nmat3571
La 1.9 Sr 0.1 Cu O 4,{},"{'La': 1.9, 'Sr': 0.1, 'Cu': 1, 'O': 4}",26.0,0.0,,,10.1038/nmat3571
La 1.84 Sr 0.16 Cu O 4,{},"{'La': 1.84, 'Sr': 0.16, 'Cu': 1, 'O': 4}",38.5,0.0,film,,10.1038/nmat3571
La 1.84 Sr 0.16 Cu O 4,{},"{'La': 1.84, 'Sr': 0.16, 'Cu': 1, 'O': 4}",38.5,0.0,,,10.1038/nmat3571
Y Ba 2 Cu 3 O 7,{},"{'Y': 1, 'Ba': 2, 'Cu': 3, 'O': 7}",90.0,0.0,,,10.1007/978-94-010-0450-3_13
Bi (Pb),{},"{'Bi': 1, 'Pb': 1}",77.0,0.0,,,10.1103/physrevb.71.214513
Sr Fe 2 As 2,{},"{'Sr': 1, 'Fe': 2, 'As': 2}",33.0,0.0,,,10.1103/physrevb.79.224518
La Fe As,{},"{'La': 1, 'Fe': 1, 'As': 1}",26.0,0.0,polycrystalline,,10.1103/physrevb.79.224518
La Fe As O,{},"{'La': 1, 'Fe': 1, 'As': 1, 'O': 1}",21.0,120.0,,,10.1103/physrevb.79.224518
Ce O 1-x F x Fe As,{'x': []},,41.0,0.0,,,10.1134/s002136400810010x
Re O Fe As,{},"{'Re': 1, 'O': 1, 'Fe': 1, 'As': 1}",10.0,0.0,,,10.1134/s002136400810010x
Nd O 1-x F x Fe As,{'x': []},,52.0,0.0,,,10.1134/s002136400810010x
La O 1-x F x Fe As,{'x': []},,26.0,0.0,,,10.1134/s002136400810010x
Sm O 1-x F x Fe As,{'x': []},,43.0,0.0,,,10.1134/s002136400810010x
Sr Fe As F,{},"{'Sr': 1, 'Fe': 1, 'As': 1, 'F': 1}",52.0,0.0,,,10.1103/physrevb.84.224513
La,{},{'La': 1},56.0,0.0,,,10.1103/physrevb.84.224513
Sr Fe As F,{},"{'Sr': 1, 'Fe': 1, 'As': 1, 'F': 1}",22.0,0.0,,,10.1103/physrevb.84.224513
Ca Fe As F,{},"{'Ca': 1, 'Fe': 1, 'As': 1, 'F': 1}",31.0,0.0,,,10.1103/physrevb.84.224513
La 2-x Sr x Cu O 4,{'x': []},,15.0,0.0,,,10.1103/physrevb.79.214523
Ba (Fe 0.925 Co 0.075) 2 As 2,{},"{'Ba': 1, 'Fe': 1.85, 'Co': 0.15, 'As': 2}",2.0,0.0,,,10.1088/1361-6668/aab3bd
Fe Se,{},"{'Fe': 1, 'Se': 1}",0.4,0.0,single crystals,,10.1088/1361-6668/aab3bd
Ba 1-x K x Bi O 3,{'x': []},,32.0,0.0,single crystal,,
Ba 1-x K x Bi O 3 Ag,{'x': []},,32.0,0.0,,,
Nb Se 2,{},"{'Nb': 1, 'Se': 2}",7.2,0.0,,,10.1103/physrevb.63.014506
Pr 0.8 Sr 0.2 Fe As O,{},"{'Pr': 0.8, 'Sr': 0.2, 'Fe': 1, 'As': 1, 'O': 1}",15.0,0.0,polycrystalline,,10.1209/0295-5075/80/27005
Pr 1-x Sr x Fe As O,{'x': [0.2]},"{'Pr': 0.8, 'Sr': 0.2, 'Fe': 1, 'As': 1, 'O': 1}",15.0,0.0,polycrystalline,,10.1209/0295-5075/80/27005
Ba Fe 1.82 Co 0.08 As 2,{},"{'Ba': 1, 'Fe': 1.82, 'Co': 0.08, 'As': 2}",9.0,0.0,single crystal,,10.1209/0295-5075/80/27005
(Ba Sr) Fe 2-x Co x As 2,{'x': []},,38.0,0.0,,,10.1209/0295-5075/80/27005
Ba Fe 1.92 Co 0.08 As 2,{},"{'Ba': 1, 'Fe': 1.92, 'Co': 0.08, 'As': 2}",9.0,0.0,crystal,,10.1209/0295-5075/80/27005
Ba Fe 1.92 Co 0.08 As 2,{},"{'Ba': 1, 'Fe': 1.92, 'Co': 0.08, 'As': 2}",9.0,0.0,single crystal,,10.1209/0295-5075/80/27005
Ba Fe 1.8 Co 0.2 As 2,{},"{'Ba': 1, 'Fe': 1.8, 'Co': 0.2, 'As': 2}",25.0,0.0,single crystals,,10.1209/0295-5075/80/27005
Mg B 2,{},"{'Mg': 1, 'B': 2}",40.0,0.0,,,10.1088/0953-2048/14/10/301
La Fe 0.925 Co 0.075 As O,{},"{'La': 1, 'Fe': 0.925, 'Co': 0.075, 'As': 1, 'O': 1}",13.2,0.0,,,10.1016/j.jpcs.2010.10.071
Y Ba 2 Cu 3 O 6.63,{},"{'Y': 1, 'Ba': 2, 'Cu': 3, 'O': 6.63}",83.0,0.0,,,10.1016/s0921-4526(99)02346-7
Bi 2 Sr 2 Ca Cu 2 O 8+δ,{'δ': []},,82.0,0.0,,,10.1088/0256-307x/25/6/092
Bi 2 Sr 2 Ca Cu 2 O 8,{},"{'Bi': 2, 'Sr': 2, 'Ca': 1, 'Cu': 2, 'O': 8}",82.0,0.0,,,10.1088/0256-307x/25/6/092
Mo S 2,{},"{'Mo': 1, 'S': 2}",10.8,0.0,crystals,,10.1021/acs.nanolett.5b04361
K Mo S 2,{},"{'K': 1, 'Mo': 1, 'S': 2}",4.6,0.0,,,10.1021/acs.nanolett.5b04361
Mo S 2,{},"{'Mo': 1, 'S': 2}",6.9,0.0,,,10.1021/acs.nanolett.5b04361
Cu Be,{},"{'Cu': 1, 'Be': 1}",1.5,94.0,,,10.1088/1742-6596/215/1/012034
La Ni As O,{},"{'La': 1, 'Ni': 1, 'As': 1, 'O': 1}",2.75,0.0,,,10.1103/physrevb.79.094508
Ba Co 2 As 2,{},"{'Ba': 1, 'Co': 2, 'As': 2}",0.4,0.0,,,10.1103/physrevb.79.094508
Ba Fe Ni As 2,{},"{'Ba': 1, 'Fe': 1, 'Ni': 1, 'As': 2}",0.69,0.0,,,10.1103/physrevb.79.094508
Ba Ni 2 As 2,{},"{'Ba': 1, 'Ni': 2, 'As': 2}",0.7,0.0,crystals,,10.1103/physrevb.79.094508
Eu B 6,{},"{'Eu': 1, 'B': 6}",12.45,0.0,,,10.1103/physrevb.64.174412
Nb 47,{},{'Nb': 47},9.0,0.0,,,10.1146/annurev-conmatphys-031113-133822
Mg B 2,{},"{'Mg': 1, 'B': 2}",40.0,0.0,,,10.1146/annurev-conmatphys-031113-133822
Bi 2 Sr 2 Ca Cu 2 O x,{'x': []},,75.0,0.0,,,10.1146/annurev-conmatphys-031113-133822
Nb Ti,{},"{'Nb': 1, 'Ti': 1}",9.0,0.0,,,10.1146/annurev-conmatphys-031113-133822
Li Fe As,{},"{'Li': 1, 'Fe': 1, 'As': 1}",18.0,0.0,,,10.1146/annurev-conmatphys-031113-133822
Na Fe As,{},"{'Na': 1, 'Fe': 1, 'As': 1}",18.0,0.0,,,10.1146/annurev-conmatphys-031113-133822
Co Fe As,{},"{'Co': 1, 'Fe': 1, 'As': 1}",18.0,0.0,,,10.1146/annurev-conmatphys-031113-133822
K Fe As,{},"{'K': 1, 'Fe': 1, 'As': 1}",18.0,0.0,,,10.1146/annurev-conmatphys-031113-133822
Nd Fe As O 0.7 F 0.3,{},"{'Nd': 1, 'Fe': 1, 'As': 1, 'O': 0.7, 'F': 0.3}",38.0,0.0,,,10.1146/annurev-conmatphys-031113-133822
Nb 3 Sn,{},"{'Nb': 3, 'Sn': 1}",18.0,0.0,,,10.1146/annurev-conmatphys-031113-133822
Y Ba 2 Cu 3 O 7-x,{'x': []},,92.0,0.0,,,10.1146/annurev-conmatphys-031113-133822
Re Fe As O 1-x F x,{'x': []},,55.0,0.0,,,10.1146/annurev-conmatphys-031113-133822
Ba 0.6 K 0.4 Fe 2 As 2,{},"{'Ba': 0.6, 'K': 0.4, 'Fe': 2, 'As': 2}",38.0,0.0,,,10.1146/annurev-conmatphys-031113-133822
Ba 0.6 K 0.4 Fe 2 As 2,{},"{'Ba': 0.6, 'K': 0.4, 'Fe': 2, 'As': 2}",42.0,0.0,,,10.1146/annurev-conmatphys-031113-133822
Nb 3 Sn 95,{},"{'Nb': 3, 'Sn': 95}",18.0,0.0,,,10.1146/annurev-conmatphys-031113-133822
Bi 2 Sr 2 Ca 2 Cu 3 O x,{'x': []},,108.0,0.0,,,10.1146/annurev-conmatphys-031113-133822
Bi 2 Sr 2 Ca 2 Cu 3 O x,{'x': []},,110.0,0.0,,,10.1146/annurev-conmatphys-031113-133822
Fe Se 1-x Te x,{'x': []},,18.0,0.0,,,10.1146/annurev-conmatphys-031113-133822
(Ba x Li 1-x) Fe 2 As 2,{'x': []},,38.0,0.0,,,10.1146/annurev-conmatphys-031113-133822
(Ba x Na 1-x) Fe 2 As 2,{'x': []},,38.0,0.0,,,10.1146/annurev-conmatphys-031113-133822
(Ba x Co 1-x) Fe 2 As 2,{'x': []},,38.0,0.0,,,10.1146/annurev-conmatphys-031113-133822
(Ba x K 1-x) Fe 2 As 2,{'x': []},,38.0,0.0,,,10.1146/annurev-conmatphys-031113-133822
(Bi Pb) 2 Sr 2 Ca 2 Cu 3 O x,{'x': []},,110.0,0.0,,,10.1146/annurev-conmatphys-031113-133822
Fe Se,{},"{'Fe': 1, 'Se': 1}",36.7,0.0,,,10.1038/s41535-017-0050-7
Fe Se,{},"{'Fe': 1, 'Se': 1}",4.5,0.0,,,10.1038/s41535-017-0050-7
Fe Se,{},"{'Fe': 1, 'Se': 1}",60.0,0.0,thin film,SrTiO 3,10.1038/s41535-017-0050-7
Bi Sb,{},"{'Bi': 1, 'Sb': 1}",21.0,0.0,,,10.1007/s40509-017-0131-0
(Nd 0.94 Ca 0.06) Ba 2 Cu 3 O 7-δ,{'δ': []},,523.0,8.0,,,
Nd (Ba 1.6 La 0.4) Cu 3 O z,{'z': []},,37.0,0.0,,,
Bi 2 Sr 2 Ca 0.92 Y 0.08 Cu 2 O 8+δ,{'δ': []},,96.0,0.0,crystals,,10.1126/science.1216765
Mg B 2,{},"{'Mg': 1, 'B': 2}",40.0,0.0,polycrystalline,,10.1007/bf01669868
Li Fe O 2 Fe 2 Se 2,{},"{'Li': 1, 'Fe': 3, 'O': 2, 'Se': 2}",43.0,0.0,,,10.1088/1367-2630/aa5a71
Nb B 2.0,{},"{'Nb': 1, 'B': 2.0}",2.5,0.0,,,10.1016/j.physc.2008.06.009
Mg B 2,{},"{'Mg': 1, 'B': 2}",39.0,0.0,,,10.1016/j.physc.2008.06.009
Sr 2 Ru O 4,{},"{'Sr': 2, 'Ru': 1, 'O': 4}",1.5,0.0,,,10.1143/jpsj.79.104705
Mg B 2,{},"{'Mg': 1, 'B': 2}",37.5,0.0,,,10.1038/s41598-020-61905-3
Fe Se 11,{},"{'Fe': 1, 'Se': 11}",8.0,0.0,,,10.1103/physrevb.100.094108
Ti,{},{'Ti': 1},4.5,0.0,,,10.1117/12.460456
Nb Ti N,{},"{'Nb': 1, 'Ti': 1, 'N': 1}",15.0,0.0,,,10.1117/12.460456
K H 2 P O 4,{},"{'K': 1, 'H': 2, 'P': 1, 'O': 4}",210.0,170.0,,,
Bi 2 Sr 2 Cu O 6,{},"{'Bi': 2, 'Sr': 2, 'Cu': 1, 'O': 6}",32.0,0.0,,,10.1007/s11433-018-9276-5
Bi 2-y Pb y Sr 2 Cu O 6+δ,"{'δ': [], 'y': [0.25]}",,32.0,0.0,,,10.1007/s11433-018-9276-5
Bi 2-y Pb y Sr 2 Cu O 6+δ,"{'δ': [], 'y': [0.25]}",,13.0,0.0,,,10.1007/s11433-018-9276-5
Bi 2 Sr 2 Cu O 6,{},"{'Bi': 2, 'Sr': 2, 'Cu': 1, 'O': 6}",13.0,0.0,,,10.1007/s11433-018-9276-5
Bi 2 Sr 2 Ca Cu 2 O 8,{},"{'Bi': 2, 'Sr': 2, 'Ca': 1, 'Cu': 2, 'O': 8}",90.0,0.0,,,10.1007/s11433-018-9276-5
Bi 2 Sr 2-x La x Cu O 6+δ,"{'δ': [], 'x': [0.37]}",,32.0,0.0,,,10.1007/s11433-018-9276-5
Nb B,{},"{'Nb': 1, 'B': 1}",8.25,0.0,,,10.1103/physrevmaterials.1.044803
Mg B 2,{},"{'Mg': 1, 'B': 2}",40.0,0.0,,,10.1103/physrevmaterials.1.044803
La Fe As O,{},"{'La': 1, 'Fe': 1, 'As': 1, 'O': 1}",26.0,0.0,,,10.1103/physrevb.86.054517
La Fe P O,{},"{'La': 1, 'Fe': 1, 'P': 1, 'O': 1}",7.0,0.0,,,10.1103/physrevb.86.054517
Si,{},{'Si': 1},4.2,0.0,,,10.1007/s10948-013-2105-8
S,{},{'S': 1},6.5,0.0,,,10.1007/s10948-013-2105-8
Y Ba 2 Cu 3 O 7-δ,{'δ': []},,91.5,0.0,film,,10.1103/physrevlett.68.690
La O 1-x F x Bi S 2,{'x': []},,11.0,0.0,,,10.1088/0953-2048/29/12/124002
U Ru 2 Si 2,{},"{'U': 1, 'Ru': 2, 'Si': 2}",1.14,0.0,,,
Bi 2 Sr 2 Ca Cu 2 O 8,{},"{'Bi': 2, 'Sr': 2, 'Ca': 1, 'Cu': 2, 'O': 8}",89.0,0.0,,,10.1103/physrevlett.113.057001
Bi 2 Sr 2 Ca Cu 2 O 8,{},"{'Bi': 2, 'Sr': 2, 'Ca': 1, 'Cu': 2, 'O': 8}",82.0,0.0,,,10.1103/physrevlett.113.057001
W 3 Al 2 C,{},"{'W': 3, 'Al': 2, 'C': 1}",10.0,0.0,polycrystalline,,
W 3 Al 2 C,{},"{'W': 3, 'Al': 2, 'C': 1}",7.5,0.0,,,
Hg Ba 2 Ca 2 Cu 3 O 10,{},"{'Hg': 1, 'Ba': 2, 'Ca': 2, 'Cu': 3, 'O': 10}",135.0,0.0,,,10.12693/aphyspola.126.a-92
Fe Se,{},"{'Fe': 1, 'Se': 1}",30.0,0.0,,,10.1103/physrevb.83.212502
Fe Se,{},"{'Fe': 1, 'Se': 1}",8.0,0.0,,,10.1103/physrevb.83.212502
Cu x Bi 2 Se 3,{'x': []},,0.3,0.0,,,10.1103/physrevb.86.094507
Y Ba 2 Cu 3 O 7,{},"{'Y': 1, 'Ba': 2, 'Cu': 3, 'O': 7}",93.0,0.0,,,10.20948/prepr-2018-29
Nd Fe As O 0.9 F 0.1,{},"{'Nd': 1, 'Fe': 1, 'As': 1, 'O': 0.9, 'F': 0.1}",53.0,0.0,,,10.1103/physrevlett.101.147003
Nd O 0.5 F 0.5 Bi S 2,{},"{'Nd': 1, 'O': 0.5, 'F': 0.5, 'Bi': 1, 'S': 2}",5.0,0.0,,,10.7566/jpsj.86.074701
K 0.8 Fe 2 Se 2,{},"{'K': 0.8, 'Fe': 2, 'Se': 2}",30.0,0.0,,,10.1103/physrevlett.106.117602
Cs 0.8 (Fe Se 0.98) 2,{},"{'Cs': 0.8, 'Fe': 2, 'Se': 1.96}",27.4,0.0,,,10.1103/physrevlett.106.117602