Material,Substitutions,Composition,Tc (K),Pressure (GPa),Shape,Substrate,DOI
La Fe As O 1-x F x,{'x': []},,26.0,0.0,,,10.1134/s0021364013230112
Mg B 2,{},"{'Mg': 1, 'B': 2}",40.0,0.0,,,10.1103/physrevlett.86.4374
Mg B 2,{},"{'Mg': 1, 'B': 2}",39.0,0.0,,,10.1103/physrevlett.86.4374
Pr Os 4 Sb 12,{},"{'Pr': 1, 'Os': 4, 'Sb': 12}",1.85,0.0,,,10.1016/s0921-4534(02)02735-1
La Os 4 Sb 12,{},"{'La': 1, 'Os': 4, 'Sb': 12}",1.0,0.0,single crystals,,10.1016/s0921-4534(02)02735-1
Mg B 2,{},"{'Mg': 1, 'B': 2}",10.0,0.0,,,10.1103/physrevlett.93.237003
Mg B 2,{},"{'Mg': 1, 'B': 2}",40.0,0.0,,,10.1103/physrevlett.93.237003
Mg B 2,{},"{'Mg': 1, 'B': 2}",39.0,0.0,,,10.1103/physrevb.63.220508
Y Ba 2 Cu 3 O 7,{},"{'Y': 1, 'Ba': 2, 'Cu': 3, 'O': 7}",92.0,0.0,,,10.1088/0953-8984/21/24/245702
Tm Ni 2 B 2 C,{},"{'Tm': 1, 'Ni': 2, 'B': 2, 'C': 1}",11.0,0.0,,,
Lu 1-x Tm x Ni 2 B 2 C,{'x': []},,1.0,0.0,,,
Y Pd 2 B 2 C,{},"{'Y': 1, 'Pd': 2, 'B': 2, 'C': 1}",23.0,0.0,,,10.1103/physrevb.89.104503
Rb Os 2 O 6,{},"{'Rb': 1, 'Os': 2, 'O': 6}",6.4,0.0,,,10.1103/physrevb.71.214517
Pd Te 2,{},"{'Pd': 1, 'Te': 2}",1.64,0.0,,,10.1088/1361-648x/ab49b5
Sm Fe As O,{},"{'Sm': 1, 'Fe': 1, 'As': 1, 'O': 1}",55.0,0.0,,,10.1143/apex.1.101702
La Ni B N,{},"{'La': 1, 'Ni': 1, 'B': 1, 'N': 1}",3.9,0.0,,,10.1103/physrevb.87.144509
La Pt B N,{},"{'La': 1, 'Pt': 1, 'B': 1, 'N': 1}",5.4,0.0,,,10.1103/physrevb.87.144509
Ca Ni B N,{},"{'Ca': 1, 'Ni': 1, 'B': 1, 'N': 1}",4.1,5.0,,,10.1103/physrevb.87.144509
La Ni B N,{},"{'La': 1, 'Ni': 1, 'B': 1, 'N': 1}",4.1,0.0,,,10.1103/physrevb.87.144509
La Pt B N,{},"{'La': 1, 'Pt': 1, 'B': 1, 'N': 1}",6.7,0.0,,,10.1103/physrevb.87.144509
La 3 Ni 2 B 2 N 3,{},"{'La': 3, 'Ni': 2, 'B': 2, 'N': 3}",13.0,0.0,,,10.1103/physrevb.87.144509
Mg (B 0.9 C 0.1) 2,{},"{'Mg': 1, 'B': 1.8, 'C': 0.2}",22.0,0.0,,,10.1103/physrevb.68.020505
Mg B 2,{},"{'Mg': 1, 'B': 2}",22.0,0.0,,,10.1103/physrevb.68.020505
Mg B 2,{},"{'Mg': 1, 'B': 2}",17.0,0.0,,,10.1103/physrevb.68.020505
Mg B 2,{},"{'Mg': 1, 'B': 2}",40.0,0.0,,,10.1063/1.3332575
Ti 0.6 V 0.4,{},"{'Ti': 0.6, 'V': 0.4}",7.06,0.0,,,10.1016/j.physb.2013.11.043
Ti 0.6 V 0.4,{},"{'Ti': 0.6, 'V': 0.4}",7.15,0.0,,,10.1016/j.physb.2013.11.043
Ti 0.6 V 0.4,{},"{'Ti': 0.6, 'V': 0.4}",5.4,0.0,,,10.1016/j.physb.2013.11.043
Ti 0.6 V 0.4,{},"{'Ti': 0.6, 'V': 0.4}",6.63,0.0,,,10.1016/j.physb.2013.11.043
Ti 0.6 V 0.4,{},"{'Ti': 0.6, 'V': 0.4}",14.3,0.0,,,10.1016/j.physb.2013.11.043
Fe Se,{},"{'Fe': 1, 'Se': 1}",8.0,0.0,,,10.1016/j.scib.2019.04.022
(Li Fe) O H Fe Se,{},"{'Li': 1, 'Fe': 2, 'O': 1, 'H': 1, 'Se': 1}",27.0,0.0,thin flake,,10.1016/j.scib.2019.04.022
(Li 0.8 Fe 0.2) O H Fe Se,{},"{'Li': 0.8, 'Fe': 1.2, 'O': 1, 'H': 1, 'Se': 1}",43.0,0.0,polycrystalline,,10.1016/j.scib.2019.04.022
(Li Fe) O H Fe Se,{},"{'Li': 1, 'Fe': 2, 'O': 1, 'H': 1, 'Se': 1}",43.0,0.0,thin flake,,10.1016/j.scib.2019.04.022
(Li 0.8 Fe 0.2) O H Fe Se,{},"{'Li': 0.8, 'Fe': 1.2, 'O': 1, 'H': 1, 'Se': 1}",43.0,0.0,,,10.1016/j.scib.2019.04.022
Bi,{},{'Bi': 1},2.48,0.0,,,10.1103/physrevb.66.014533
Sc 3 Co C 4,{},"{'Sc': 3, 'Co': 1, 'C': 4}",4.5,0.0,,,10.1088/0957-0233/23/8/085002
Mg B 2,{},"{'Mg': 1, 'B': 2}",39.0,0.0,,,10.1007/s10948-010-1046-8
Mg B 2,{},"{'Mg': 1, 'B': 2}",40.0,0.0,,,10.1007/978-94-010-0221-9_4
Pd H,{},"{'Pd': 1, 'H': 1}",7.6,0.0,,,
B H 3,{},"{'B': 1, 'H': 3}",135.0,0.0,,,
Si 2 H 6,{},"{'Si': 2, 'H': 6}",153.0,170.0,,,
H 3 S,{},"{'H': 3, 'S': 1}",200.0,170.0,,,
Be H 2,{},"{'Be': 1, 'H': 2}",45.0,0.0,,,
H 3 S,{},"{'H': 3, 'S': 1}",4.0,0.0,,,
La H 10,{},"{'La': 1, 'H': 10}",200.0,170.0,,,
Si 2 H 6,{},"{'Si': 2, 'H': 6}",97.0,0.0,,,
Te H 4,{},"{'Te': 1, 'H': 4}",150.0,170.0,,,
Al H 3,{},"{'Al': 1, 'H': 3}",7.0,125.0,,,
Nb 1-x Ti x,{'x': []},,8.0,0.0,multilayers,,10.1103/physrevb.68.054532
La O Fe As,{},"{'La': 1, 'O': 1, 'Fe': 1, 'As': 1}",26.0,0.0,,,10.1103/physrevb.81.104503
Ce Co In 5,{},"{'Ce': 1, 'Co': 1, 'In': 5}",2.3,0.0,,,10.1103/physrevb.90.104512
Ce Rh In 5,{},"{'Ce': 1, 'Rh': 1, 'In': 5}",2.0,2.0,,,10.1103/physrevb.90.104512
Fe Se,{},"{'Fe': 1, 'Se': 1}",65.0,0.0,,SrTiO3(001,10.1038/nphys3450
Nb,{},{'Nb': 1},9.25,0.0,,,10.1103/physrevapplied.3.054010
Bi 2 Sr 2-x Eu x Cu O y,"{'x': [], 'y': []}",,33.0,0.0,,,10.1103/physrevb.83.104502
Bi 2 Sr 2-x La x Cu O y,"{'x': [], 'y': []}",,33.0,0.0,,,10.1103/physrevb.83.104502
Ce Co In 5,{},"{'Ce': 1, 'Co': 1, 'In': 5}",2.3,0.0,,,10.1103/physrevlett.94.107005
(Li 1-x Fe x) O H Fe 1-y Se,"{'x': [0.84], 'y': []}",,40.0,0.0,single crystal,,10.1038/s41467-018-02843-7
Fe Se,{},"{'Fe': 1, 'Se': 1}",8.5,0.0,,,10.1038/s41467-018-02843-7
(Li 1-x Fe x) O H Fe 1-y Se,"{'x': [0.84], 'y': []}",,40.0,0.0,single crystals,,10.1038/s41467-018-02843-7
(Li 1-x Fe x) O H Fe 1-y Se,"{'x': [], 'y': []}",,41.0,0.0,single crystal,,10.1038/s41467-018-02843-7
(Li 1-x Fe x) O H Fe 1-y Se,"{'x': [], 'y': []}",,28.0,0.0,,,10.1038/s41467-018-02843-7
Ce Co In 5,{},"{'Ce': 1, 'Co': 1, 'In': 5}",0.7,0.0,,,10.1103/physrevlett.91.187004
Sr Pt As,{},"{'Sr': 1, 'Pt': 1, 'As': 1}",0.019,0.0,,,10.1103/physrevb.87.180503
La 2 Cu O 4+y,{'y': []},,37.0,0.0,crystals,,10.1063/1.1536357
Bi 2 Se 3,{},"{'Bi': 2, 'Se': 3}",3.8,0.0,,,10.1088/0953-2048/27/10/104002
Mg B 2,{},"{'Mg': 1, 'B': 2}",40.0,0.0,,,10.1007/978-94-010-0544-9_20
Sr Fe 2-x Co x As 2,{'x': []},,10.0,0.0,,,10.1016/j.physc.2009.11.079
Sr Fe 2-x Ni x As 2,{'x': [0.1]},"{'Sr': 1, 'Fe': 1.9, 'Ni': 0.1, 'As': 2}",20.0,0.0,crystals,,10.1016/j.physc.2009.11.079
Sr Fe 2 As 2,{},"{'Sr': 1, 'Fe': 2, 'As': 2}",21.0,0.0,,,10.1016/j.physc.2009.11.079
Sm As Fe O 0.9 F 0.1,{},"{'Sm': 1, 'As': 1, 'Fe': 1, 'O': 0.9, 'F': 0.1}",52.0,0.0,,,10.1007/s10948-008-0333-0
Sm As Fe O 0.85,{},"{'Sm': 1, 'As': 1, 'Fe': 1, 'O': 0.85}",52.6,0.0,,,10.1007/s10948-008-0333-0
Mg B 2,{},"{'Mg': 1, 'B': 2}",39.0,0.0,,,10.1103/physrevb.79.020508
Mo 8 Ga 41,{},"{'Mo': 8, 'Ga': 41}",9.7,0.0,,,10.1103/physrevb.96.134504
Mo 8 Ga 41,{},"{'Mo': 8, 'Ga': 41}",9.8,0.0,,,10.1103/physrevb.96.134504
Mo 7 V Ga 41,{},"{'Mo': 7, 'V': 1, 'Ga': 41}",9.2,0.0,,,10.1103/physrevb.96.134504
Bi 2 Sr 1.6 La 0.4 Cu O 6+δ,{'δ': []},,34.0,0.0,,,10.1088/0034-4885/74/6/066501
(O P) Pb 0.55 Bi 1.5 Sr 1.6 La 0.4 Cu O 6+δ,{'δ': []},,35.0,0.0,,,10.1088/0034-4885/74/6/066501
La 2-x Sr x Cu O 4,{'x': [0.16]},"{'La': 1.84, 'Sr': 0.16, 'Cu': 1, 'O': 4}",38.5,0.0,,,10.1088/0034-4885/74/6/066501
La 1.84 Sr 0.16 Cu O 4,{},"{'La': 1.84, 'Sr': 0.16, 'Cu': 1, 'O': 4}",38.5,0.0,,,10.1088/0034-4885/74/6/066501
Tl 2 Ba 2 Cu O 6+δ,{'δ': []},,90.0,0.0,,,10.1088/0034-4885/74/6/066501
Tl 2 Ba 2 Cu O 6+δ,{'δ': []},,82.0,0.0,,,10.1088/0034-4885/74/6/066501
Y Ba 2 Cu 3 O 6+x,{'x': []},,52.0,0.0,,,10.1088/0034-4885/74/6/066501
Bi 2 Sr 2 Ca 0.92 Y 0.08 Cu 2 O 8+δ,{'δ': []},,94.0,0.0,,,10.1088/0034-4885/74/6/066501
Bi 2 Sr 2 Ca Cu 2 O 8+δ,{'δ': []},,96.0,0.0,,,10.1088/0034-4885/74/6/066501
Mg B 2,{},"{'Mg': 1, 'B': 2}",40.0,0.0,,,10.1088/0034-4885/74/6/066501
Y Ba 2 Cu 4 O 7,{},"{'Y': 1, 'Ba': 2, 'Cu': 4, 'O': 7}",82.0,0.0,,,10.1088/0034-4885/74/6/066501
Bi 2 Sr 2 Ca Cu 2 O 8,{},"{'Bi': 2, 'Sr': 2, 'Ca': 1, 'Cu': 2, 'O': 8}",65.0,0.0,,,10.1088/0034-4885/74/6/066501
Cu 4 O 8,{},"{'Cu': 4, 'O': 8}",82.0,0.0,,,10.1088/0034-4885/74/6/066501
Pb 0.38 Bi 1.74 Sr 1.88 Cu O 6+δ,{'δ': []},,4.0,0.0,,,10.1088/0034-4885/74/6/066501
Bi 2 Sr 2 Ca Cu 2 O 8,{},"{'Bi': 2, 'Sr': 2, 'Ca': 1, 'Cu': 2, 'O': 8}",90.0,0.0,,,10.1088/0034-4885/74/6/066501
(Bi Pb) 2 Sr 2 Cu O 6+δ,{'δ': []},,5.0,0.0,,,10.1088/0034-4885/74/6/066501
Bi 2 Sr 2 Ca 2 Cu 3 O 10,{},"{'Bi': 2, 'Sr': 2, 'Ca': 2, 'Cu': 3, 'O': 10}",100.0,0.0,,,10.1088/0034-4885/74/6/066501
Bi 2 Sr 2 Ca Cu 2 O 8+δ,{'δ': []},,90.0,0.0,,,10.1088/0034-4885/74/6/066501
Bi 2 Sr 2 Cu O 6,{},"{'Bi': 2, 'Sr': 2, 'Cu': 1, 'O': 6}",18.0,0.0,,,10.1088/0034-4885/74/6/066501
Bi 2 Sr 2 Ca Cu 2 O 8+δ,{'δ': []},,68.0,0.0,,,10.1088/0034-4885/74/6/066501
Y Ba 2 Cu 3 O 6+x,{'x': []},,74.0,0.0,,,10.1088/0034-4885/74/6/066501
Y Ba 2 Cu 3 O 6+x,{'x': []},,92.0,0.0,,,10.1088/0034-4885/74/6/066501
Tb 1-x Ca x Fe As O,{'x': [0.4]},"{'Tb': 0.6, 'Ca': 0.4, 'Fe': 1, 'As': 1, 'O': 1}",15.6,0.0,,,10.1209/0295-5075/89/27002
(Ga Mn) As,{},"{'Ga': 1, 'Mn': 1, 'As': 1}",110.0,0.0,,,10.1063/1.1525885
Mg B 2,{},"{'Mg': 1, 'B': 2}",39.0,0.0,,,10.1103/physrevlett.86.5582
Mg B 2,{},"{'Mg': 1, 'B': 2}",1.0,0.0,,,
Sn,{},{'Sn': 1},0.04,0.0,,,10.1103/physrevb.72.174510
Fe Se,{},"{'Fe': 1, 'Se': 1}",36.7,8.9,,,10.1088/0953-2048/27/12/122001
Fe Se,{},"{'Fe': 1, 'Se': 1}",8.0,0.0,,,10.1088/0953-2048/27/12/122001
Sr Bi 3,{},"{'Sr': 1, 'Bi': 3}",9.0,0.0,,,10.1088/1361-6668/30/2/025015
Ba Bi 3,{},"{'Ba': 1, 'Bi': 3}",5.9,0.0,,,10.1088/1361-6668/30/2/025015
Ba Bi 3,{},"{'Ba': 1, 'Bi': 3}",6.6,0.5,single crystal,,10.1088/1361-6668/30/2/025015
Ba Bi 3,{},"{'Ba': 1, 'Bi': 3}",6.0,0.0,,,10.1088/1361-6668/30/2/025015
Sr Bi 3,{},"{'Sr': 1, 'Bi': 3}",5.6,0.0,,,10.1088/1361-6668/30/2/025015
Sr Bi 3,{},"{'Sr': 1, 'Bi': 3}",5.6,0.0,single crystal,,10.1088/1361-6668/30/2/025015
Sr Bi 3,{},"{'Sr': 1, 'Bi': 3}",5.75,0.0,,,10.1088/1361-6668/30/2/025015
Hg Ba 2 Cu O x,{'x': []},,96.0,0.0,,,10.1023/b:josc.0000011860.19159.2d
Y 1-y Ca y Ba 2 Cu 3 O x,"{'x': [], 'y': []}",,92.0,0.0,,,10.1023/b:josc.0000011860.19159.2d
Hg Ba 2 Ca Cu 2 O x,{'x': []},,127.0,0.0,,,10.1023/b:josc.0000011860.19159.2d
La 2-x Sr x Cu O 4,{'x': []},,36.0,0.0,,,10.1023/b:josc.0000011860.19159.2d
Si,{},{'Si': 1},0.35,0.0,,,10.1088/0256-307X/38/8/086301
Si C,{},"{'Si': 1, 'C': 1}",8.1,0.0,,,10.1088/0256-307X/38/8/086301
H 3 S,{},"{'H': 3, 'S': 1}",203.0,150.0,,,10.1002/andp.201800139
Nb,{},{'Nb': 1},6.6,0.0,thin film,,10.1088/0953-2048/24/9/095004
Nb Se 2,{},"{'Nb': 1, 'Se': 2}",6.0,0.0,,,10.1021/acs.nanolett.7b03026
Nb Se 2,{},"{'Nb': 1, 'Se': 2}",6.61,0.0,,,10.1021/acs.nanolett.7b03026
Nb Se 2,{},"{'Nb': 1, 'Se': 2}",2.4,0.0,,,10.1021/acs.nanolett.7b03026
Nb Se 2,{},"{'Nb': 1, 'Se': 2}",3.1,0.0,,,10.1021/acs.nanolett.7b03026
Pr O Bi S 2,{},"{'Pr': 1, 'O': 1, 'Bi': 1, 'S': 2}",0.25,0.0,single crystal,,10.1016/j.ssc.2019.04.007
Pr O Bi S 2,{},"{'Pr': 1, 'O': 1, 'Bi': 1, 'S': 2}",0.25,0.0,single crystals,,10.1016/j.ssc.2019.04.007
Sm Fe As O 1-x F x,{'x': []},,43.0,0.0,,,10.1143/jpsjs.77sc.155
Tb Fe As O 0.85,{},"{'Tb': 1, 'Fe': 1, 'As': 1, 'O': 0.85}",42.0,0.0,polycrystalline,,10.1143/jpsjs.77sc.155
Y Ba 2 Cu 4 O 8,{},"{'Y': 1, 'Ba': 2, 'Cu': 4, 'O': 8}",81.0,0.0,,,10.1016/j.physb.2015.02.011
Mg B 2,{},"{'Mg': 1, 'B': 2}",40.0,0.0,,,10.1103/physrevlett.102.187003
Ba 0.55 K 0.45 Fe 2 As 2,{},"{'Ba': 0.55, 'K': 0.45, 'Fe': 2, 'As': 2}",28.0,0.0,crystals,,10.1103/physrevlett.102.187003
Mg B 2,{},"{'Mg': 1, 'B': 2}",40.0,0.0,,,10.1103/physrevb.65.024502
Mg B 2,{},"{'Mg': 1, 'B': 2}",39.0,0.0,,,10.1103/physrevlett.91.127006
Sr C 6,{},"{'Sr': 1, 'C': 6}",3.1,0.0,,,10.1103/physrevlett.99.027001
Sr C 6,{},"{'Sr': 1, 'C': 6}",7.8,0.0,,,10.1103/physrevlett.99.027001
Ba C 6,{},"{'Ba': 1, 'C': 6}",0.3,0.0,,,10.1103/physrevlett.99.027001
Ca Fe 2 As 2,{},"{'Ca': 1, 'Fe': 2, 'As': 2}",10.0,5.0,,,10.1088/0256-307x/33/6/067401
Sr Fe 2 As 2,{},"{'Sr': 1, 'Fe': 2, 'As': 2}",38.0,60.0,,,10.1088/0256-307x/33/6/067401
Ca Fe 2 As 2,{},"{'Ca': 1, 'Fe': 2, 'As': 2}",49.0,0.0,,,10.1088/0256-307x/33/6/067401
Re 3 W,{},"{'Re': 3, 'W': 1}",9.0,0.0,,,
Re 3 W,{},"{'Re': 3, 'W': 1}",7.0,0.0,,,
Y Ba 2 Cu 3 O 7-δ,{'δ': []},,90.0,0.0,,,10.1007/s10948-013-2465-0
Y Ba 2 Cu 3 O 7,{},"{'Y': 1, 'Ba': 2, 'Cu': 3, 'O': 7}",88.0,0.0,,,10.1016/s0921-4534(02)02302-x
Mg B 2,{},"{'Mg': 1, 'B': 2}",16.0,0.0,,,10.1016/s0921-4534(02)02302-x
Mg B 2,{},"{'Mg': 1, 'B': 2}",38.0,0.0,,,10.1016/s0921-4534(02)02302-x
Mg B 2,{},"{'Mg': 1, 'B': 2}",39.0,0.0,,,10.1016/s0921-4534(02)02302-x
Mg B 2,{},"{'Mg': 1, 'B': 2}",39.0,0.0,,,10.1016/j.physc.2011.12.004
Y Ba 2 Cu 3 O 6.95,{},"{'Y': 1, 'Ba': 2, 'Cu': 3, 'O': 6.95}",93.0,0.0,crystal,,10.1103/physrevb.61.r11886
Bi 2 Sr 2 Ca Cu 2 O 8,{},"{'Bi': 2, 'Sr': 2, 'Ca': 1, 'Cu': 2, 'O': 8}",89.0,0.0,,,10.1103/physrevlett.89.077003
Cd 2 Re 2 O 7,{},"{'Cd': 2, 'Re': 2, 'O': 7}",1.0,0.0,,,10.1143/jpsj.71.1553
Nb,{},{'Nb': 1},9.2,0.0,,,10.1088/2057-1976/ab5c61
La Fe As O 1-x F x,{'x': []},,26.0,0.0,,,10.1063/1.4821335
Sm Fe As O 0.85 F 0.15,{},"{'Sm': 1, 'Fe': 1, 'As': 1, 'O': 0.85, 'F': 0.15}",56.0,0.0,,,10.1063/1.4821335
Sm Fe As O 0.85 F 0.15,{},"{'Sm': 1, 'Fe': 1, 'As': 1, 'O': 0.85, 'F': 0.15}",55.0,0.0,,,10.1063/1.4821335
Tb Fe As O 1-x F x,{'x': []},,51.0,0.0,,,10.1103/physrevb.80.052508
Tb Fe As O 0.9 F 0.1,{},"{'Tb': 1, 'Fe': 1, 'As': 1, 'O': 0.9, 'F': 0.1}",51.0,0.0,,,10.1103/physrevb.80.052508
Ho Fe As O 0.9 F 0.1,{},"{'Ho': 1, 'Fe': 1, 'As': 1, 'O': 0.9, 'F': 0.1}",36.0,0.0,,,10.1103/physrevb.80.052508
La Fe As O 1-x F x,{'x': []},,26.0,0.0,,,10.1103/physrevb.80.052508
Tb Fe As O 1-δ,{'δ': []},,56.0,0.0,,,10.1103/physrevb.80.052508
Dy Fe As O 1-δ,{'δ': []},,56.0,0.0,,,10.1103/physrevb.80.052508
Ho Fe As O 1-δ,{'δ': []},,56.0,0.0,,,10.1103/physrevb.80.052508
Tb Fe As O 1-x F x,{'x': []},,32.1,0.0,,,10.1103/physrevb.80.052508
Dy Fe As O 1-x F x,{'x': []},,32.1,0.0,,,10.1103/physrevb.80.052508
Ho Fe As O 1-x F x,{'x': []},,32.1,0.0,,,10.1103/physrevb.80.052508
Ce Rh In 5,{},"{'Ce': 1, 'Rh': 1, 'In': 5}",1.2,0.0,,,10.1103/physrevb.64.100503
Ce Rh In 5,{},"{'Ce': 1, 'Rh': 1, 'In': 5}",2.1,0.0,,,10.1103/physrevb.64.100503
Ce Co In 5,{},"{'Ce': 1, 'Co': 1, 'In': 5}",2.3,0.0,,,10.1103/physrevb.64.100503
Ce Ir In 5,{},"{'Ce': 1, 'Ir': 1, 'In': 5}",0.4,0.0,,,10.1103/physrevb.64.100503
Ba Fe 1.85 Co 0.15 As 2,{},"{'Ba': 1, 'Fe': 1.85, 'Co': 0.15, 'As': 2}",25.0,0.0,,,10.1038/nphys1483
Ba Fe 1.85 Co 0.15 As 2,{},"{'Ba': 1, 'Fe': 1.85, 'Co': 0.15, 'As': 2}",25.0,0.0,single crystal,,10.1038/nphys1483
Na x W O 3,{'x': []},,1.0,0.0,,,10.1080/13642810108216540
Mg B 2,{},"{'Mg': 1, 'B': 2}",39.0,0.0,,,10.1080/13642810108216540
Re 0.82 Nb 0.18,{},"{'Re': 0.82, 'Nb': 0.18}",8.8,0.0,,,10.1103/physrevlett.121.257002
Re,{},{'Re': 1},2.7,0.0,,,10.1103/physrevlett.121.257002
Re 0.82 Nb 0.18,{},"{'Re': 0.82, 'Nb': 0.18}",2.7,0.0,,,10.1103/physrevlett.121.257002
Ta B 2,{},"{'Ta': 1, 'B': 2}",9.5,0.0,,,10.1016/j.ssc.2009.12.007
Mg B 2,{},"{'Mg': 1, 'B': 2}",0.62,0.0,,,10.1016/j.ssc.2009.12.007
Ta B 2,{},"{'Ta': 1, 'B': 2}",1.7,0.0,,,10.1016/j.ssc.2009.12.007
Nb B 2,{},"{'Nb': 1, 'B': 2}",0.62,0.0,,,10.1016/j.ssc.2009.12.007
Ta,{},{'Ta': 1},4.4,0.0,,,10.1016/j.ssc.2009.12.007
Mg B 2,{},"{'Mg': 1, 'B': 2}",40.0,0.0,,,10.1007/s10948-011-1305-3
Nd Fe As O 0.9 F 0.1,{},"{'Nd': 1, 'Fe': 1, 'As': 1, 'O': 0.9, 'F': 0.1}",45.4,0.0,,,10.1103/physrevb.98.094504
Fe As,{},"{'Fe': 1, 'As': 1}",38.0,0.0,,,10.1209/0295-5075/122/67006
Ce Fe As O 0.9 F 0.1,{},"{'Ce': 1, 'Fe': 1, 'As': 1, 'O': 0.9, 'F': 0.1}",55.0,0.0,,,10.1103/physrevb.82.024519
Pr Fe As O 0.9 F 0.1,{},"{'Pr': 1, 'Fe': 1, 'As': 1, 'O': 0.9, 'F': 0.1}",55.0,0.0,,,10.1103/physrevb.82.024519
Nd Fe As O 0.9 F 0.1,{},"{'Nd': 1, 'Fe': 1, 'As': 1, 'O': 0.9, 'F': 0.1}",55.0,0.0,,,10.1103/physrevb.82.024519
Sm Fe As O 0.9 F 0.1,{},"{'Sm': 1, 'Fe': 1, 'As': 1, 'O': 0.9, 'F': 0.1}",55.0,0.0,,,10.1103/physrevb.82.024519
Ba (Fe 1-x-y Co x Cu y) 2 As 2,"{'x': [0.022], 'y': []}",,12.0,0.0,,,10.1103/physrevb.82.024519
Ba (Fe 0.976 Co 0.024) 2 As 2,{},"{'Ba': 1, 'Fe': 1.952, 'Co': 0.048, 'As': 2}",12.0,0.0,,,10.1103/physrevb.82.024519
Ba (Fe 0.953 Co 0.047) 2 As 2,{},"{'Ba': 1, 'Fe': 1.906, 'Co': 0.094, 'As': 2}",17.0,0.0,,,10.1103/physrevb.82.024519
Ba Fe 2 As 2,{},"{'Ba': 1, 'Fe': 2, 'As': 2}",2.5,0.0,,,10.1103/physrevb.82.024519
(Ba 1-x K x) Fe 2 As 2,{'x': []},,38.0,0.0,,,10.1103/physrevb.82.024519
Ba (Fe 1-x-y Co x Cu y) 2 As 2,"{'x': [0.047], 'y': []}",,16.0,0.0,,,10.1103/physrevb.82.024519
Ba (Fe 0.953 Co 0.047) 2 As 2,{},"{'Ba': 1, 'Fe': 1.906, 'Co': 0.094, 'As': 2}",16.0,0.0,,,10.1103/physrevb.82.024519
Pd Te 2,{},"{'Pd': 1, 'Te': 2}",0.38,0.0,,,10.1103/physrevb.99.184508
Y Ba 2 Cu 3 O 6.99,{},"{'Y': 1, 'Ba': 2, 'Cu': 3, 'O': 6.99}",89.0,0.0,,,10.1103/physrevlett.90.187002
Ce Co In 5,{},"{'Ce': 1, 'Co': 1, 'In': 5}",2.3,0.0,,,10.1103/physrevb.66.054534
Th Cr 2 Si 2,{},"{'Th': 1, 'Cr': 2, 'Si': 2}",3.0,0.0,,,10.1143/jpsj.79.053702
Ba Fe 2 (As 0.59 P 0.41) 2,{},"{'Ba': 1, 'Fe': 2, 'As': 1.18, 'P': 0.82}",25.0,0.0,,,10.1143/jpsj.79.053702
Ce Co In 5,{},"{'Ce': 1, 'Co': 1, 'In': 5}",2.3,0.0,,,10.1016/j.physc.2004.03.120
(Li 0.8 Fe 0.2) O H Fe Se,{},"{'Li': 0.8, 'Fe': 1.2, 'O': 1, 'H': 1, 'Se': 1}",40.0,0.0,,,10.1103/physrevb.92.060504
Sr 3 Rh 4 Sn 13,{},"{'Sr': 3, 'Rh': 4, 'Sn': 13}",4.2,0.0,,,
Mg B 2,{},"{'Mg': 1, 'B': 2}",40.0,0.0,,,10.1103/physrevb.64.172501
(Tl K) Fe 2-x Se 2,{'x': []},,30.0,0.0,,,10.1088/0953-8984/27/2/023201
(Tl Rb) Fe 2-x Se 2,{'x': []},,30.0,0.0,,,10.1088/0953-8984/27/2/023201
K 0.8 Fe 2 Se 2,{},"{'K': 0.8, 'Fe': 2, 'Se': 2}",30.0,0.0,,,10.1088/0953-8984/27/2/023201
(Tl Rb) 2 Fe 4 Se 5,{},"{'Tl': 2, 'Rb': 2, 'Fe': 4, 'Se': 5}",32.0,0.0,,,10.1088/0953-8984/27/2/023201
K x Fe 2 Se 2,{'x': []},,30.0,0.0,,,10.1088/0953-8984/27/2/023201
Fe 1+δ,{'δ': []},,14.0,0.0,,,10.1088/0953-8984/27/2/023201
(Tl Rb) 2 Fe 4 Se 5,{},"{'Tl': 2, 'Rb': 2, 'Fe': 4, 'Se': 5}",48.0,13.0,,,10.1088/0953-8984/27/2/023201
Pd Te,{},"{'Pd': 1, 'Te': 1}",4.5,0.0,,,10.1088/0953-2048/29/7/075008
Pd 1-x Ni x Te,"{'x': [0.3, 0.2]}","{'Pd': 0.7, 'Ni': 0.3, 'Te': 1}",2.0,0.0,,,10.1088/0953-2048/29/7/075008
Pd Te,{},"{'Pd': 1, 'Te': 1}",3.0,0.0,,,10.1088/0953-2048/29/7/075008
Y Ba 2 Cu 3 O y,{'y': []},,20.0,0.0,single crystals,,10.1103/physrevlett.88.167005
Mg B 2,{},"{'Mg': 1, 'B': 2}",38.0,0.0,,,
Mg B,{},"{'Mg': 1, 'B': 1}",40.0,0.0,,,
Ag,{},{'Ag': 1},40.0,0.0,,,
Mg B 2,{},"{'Mg': 1, 'B': 2}",40.0,0.0,,,
Mg B 2,{},"{'Mg': 1, 'B': 2}",39.0,0.0,,,10.1103/physrevb.76.094501
Nd Fe As O,{},"{'Nd': 1, 'Fe': 1, 'As': 1, 'O': 1}",13.0,0.0,,,
Nd Fe As O,{},"{'Nd': 1, 'Fe': 1, 'As': 1, 'O': 1}",13.0,0.0,polycrystalline,,
Sr 0.058 Bi 2 Se 3,{},"{'Sr': 0.058, 'Bi': 2, 'Se': 3}",2.2,0.0,,,10.1021/jacs.5b06815
Bi 2 Se 3,{},"{'Bi': 2, 'Se': 3}",1.9,0.0,,,10.1021/jacs.5b06815
Sr x Bi 2 Se 3,{'x': []},,0.5,0.0,,,10.1021/jacs.5b06815
Mg 10 Ir 19 B 16,{},"{'Mg': 10, 'Ir': 19, 'B': 16}",4.45,0.0,,,10.1103/physrevlett.99.257004
La Fe As O 0.89 F 0.11,{},"{'La': 1, 'Fe': 1, 'As': 1, 'O': 0.89, 'F': 0.11}",10.0,0.0,,,10.1088/0953-2048/21/9/095008
Ba (Fe 1-x Ni x) 2 As 2,{'x': [0.02]},"{'Ba': 1, 'Fe': 1.96, 'Ni': 0.04, 'As': 2}",16.0,0.0,single crystals,,10.1103/physrevlett.110.107007
Ba Fe 2 As 2,{},"{'Ba': 1, 'Fe': 2, 'As': 2}",38.0,0.0,,,10.1143/jpsj.79.044705
Nb 2 Pd S 5,{},"{'Nb': 2, 'Pd': 1, 'S': 5}",6.0,0.0,,,10.1103/physrevb.90.094520
Ba x Ir 4 As 12,{'x': []},,3.2,0.0,,,10.1021/jacs.7b04274
Ba 0.85 Ir 4 As 12,{},"{'Ba': 0.85, 'Ir': 4, 'As': 12}",4.8,0.0,,,10.1021/jacs.7b04274
Ba x Ir 4 As 12,{'x': [0.85]},"{'Ba': 0.85, 'Ir': 4, 'As': 12}",4.8,0.0,,,10.1021/jacs.7b04274
Y Pd 2 Sn,{},"{'Y': 1, 'Pd': 2, 'Sn': 1}",4.9,0.0,,,
Lu Pd 2 Sn,{},"{'Lu': 1, 'Pd': 2, 'Sn': 1}",2.25,0.0,,,
Sr Ti O 3,{},"{'Sr': 1, 'Ti': 1, 'O': 3}",50.0,0.0,,,
Y Sr 2 Cu 3 O 7-δ,{'δ': []},,70.0,0.0,,,
Ca Cu O 2 (Ba 1-x Nd x) Cu O 2+δ,"{'δ': [], 'x': []}",,80.0,0.0,,,
(Ca 0.3 Sr 0.7) 0.9 Cu O 2,{},"{'Ca': 0.27, 'Sr': 0.63, 'Cu': 1, 'O': 2}",110.0,0.0,,,
La O Fe P,{},"{'La': 1, 'O': 1, 'Fe': 1, 'P': 1}",4.0,0.0,,,10.1103/physrevlett.101.076401
Y Ba 2 Cu 3 O 7,{},"{'Y': 1, 'Ba': 2, 'Cu': 3, 'O': 7}",30.0,0.0,,,10.1016/j.physc.2007.03.168
Zr Cu Si As,{},"{'Zr': 1, 'Cu': 1, 'Si': 1, 'As': 1}",55.0,0.0,,,
La Fe As O,{},"{'La': 1, 'Fe': 1, 'As': 1, 'O': 1}",26.0,0.0,,,10.1088/0953-2048/21/9/095017
Sm Fe As O,{},"{'Sm': 1, 'Fe': 1, 'As': 1, 'O': 1}",55.0,0.0,,,10.1088/0953-2048/21/9/095017
Sm Fe As O,{},"{'Sm': 1, 'Fe': 1, 'As': 1, 'O': 1}",32.0,0.0,,,10.1088/0953-2048/21/9/095017
La (O 1-x F x) Fe As,{'x': []},,55.0,0.0,,,10.1088/0953-2048/21/9/095017
K 0.4 Ba 0.6 Fe 2 As 2,{},"{'K': 0.4, 'Ba': 0.6, 'Fe': 2, 'As': 2}",38.0,0.0,,,10.1103/physrevb.92.201106
La Fe P O,{},"{'La': 1, 'Fe': 1, 'P': 1, 'O': 1}",3.2,0.0,,,10.1088/1674-1056/22/8/087410
Ca Be 2 Ge 2,{},"{'Ca': 1, 'Be': 2, 'Ge': 2}",5.2,0.0,,,10.1088/1674-1056/22/8/087410
Fe S Cs,{},"{'Fe': 1, 'S': 1, 'Cs': 1}",60.0,0.0,,,10.1088/1674-1056/22/8/087410