Material,Substitutions,Composition,Tc (K),Pressure (GPa),Shape,Substrate,DOI
Ga As,{},"{'Ga': 1, 'As': 1}",110.0,0.0,,,10.1103/physrevb.68.033202
La Ir 3,{},"{'La': 1, 'Ir': 3}",3.5,0.0,,,10.1103/physrevb.100.214514
Ce Ir 3,{},"{'Ce': 1, 'Ir': 3}",2.5,0.0,,,10.1103/physrevb.100.214514
Nd Ir 3,{},"{'Nd': 1, 'Ir': 3}",10.6,0.0,,,10.1103/physrevb.100.214514
Mg B 2,{},"{'Mg': 1, 'B': 2}",30.0,0.0,,,10.1016/s0038-1098(02)00048-0
Mo Te 2,{},"{'Mo': 1, 'Te': 2}",0.1,0.0,,,10.1103/physrevb.100.064516
Sn Ta S 2,{},"{'Sn': 1, 'Ta': 1, 'S': 2}",3.0,0.0,,,10.1103/physrevb.100.064516
Sn Ta S 2,{},"{'Sn': 1, 'Ta': 1, 'S': 2}",2.8,0.0,,,10.1103/physrevb.100.064516
Li 2 Pd 3 B,{},"{'Li': 2, 'Pd': 3, 'B': 1}",8.0,0.0,,,10.1016/j.physc.2005.08.006
Ce Pt 3 Si,{},"{'Ce': 1, 'Pt': 3, 'Si': 1}",0.75,0.0,,,10.1016/j.physc.2005.08.006
Nb,{},{'Nb': 1},8.0,0.0,thin films,,10.1007/s10948-016-3642-8
Ba Co x Fe 2-x As 2,{'x': [0.14]},"{'Ba': 1, 'Co': 0.14, 'Fe': 1.8599999999999999, 'As': 2}",22.0,0.0,,,10.1209/0295-5075/92/57012
Ba Co x Fe 2-x As 2,{'x': [0.08]},"{'Ba': 1, 'Co': 0.08, 'Fe': 1.92, 'As': 2}",14.0,0.0,crystal,,10.1209/0295-5075/92/57012
Pb,{},{'Pb': 1},7.1,0.0,,,10.1063/1.4963698
Pb 0.6 Sn 0.4 Te,{},"{'Pb': 0.6, 'Sn': 0.4, 'Te': 1}",5.5,0.0,,,10.1063/1.4963698
Pb 0.6 Sn 0.4 Te,{},"{'Pb': 0.6, 'Sn': 0.4, 'Te': 1}",9.4,0.0,,,10.1063/1.4963698
Fe Se,{},"{'Fe': 1, 'Se': 1}",8.0,0.0,,,10.1103/physrevb.95.224507
Fe Se,{},"{'Fe': 1, 'Se': 1}",12.0,0.0,film,CaF 2,10.1103/physrevb.95.224507
K W O 3,{},"{'K': 1, 'W': 1, 'O': 3}",3.0,0.0,,,10.1103/physrevb.91.094509
Fe Se,{},"{'Fe': 1, 'Se': 1}",10.0,0.0,,,10.1103/physrevb.78.224503
Fe Se,{},"{'Fe': 1, 'Se': 1}",27.0,0.0,,,10.1103/physrevb.78.224503
La 1.89 Sr 0.11 Cu O 4,{},"{'La': 1.89, 'Sr': 0.11, 'Cu': 1, 'O': 4}",30.0,0.0,,,10.1103/physrevb.88.184507
Bi 2 Sr 1.6 La 0.4 Cu O 6+δ,{'δ': []},,33.0,0.0,,,10.1103/physrevb.88.184507
La 1.89 Sr 0.11 Cu O 4,{},"{'La': 1.89, 'Sr': 0.11, 'Cu': 1, 'O': 4}",30.0,0.0,crystal,,10.1103/physrevb.88.184507
Zr B 12,{},"{'Zr': 1, 'B': 12}",6.0,0.0,,,10.1103/physrevb.72.024548
Mg B 2,{},"{'Mg': 1, 'B': 2}",39.0,0.0,,,10.1103/physrevb.72.024548
Zr B 12,{},"{'Zr': 1, 'B': 12}",6.0,0.0,single crystal,,10.1103/physrevb.72.024548
Y Ba 2 Cu 3 O y,{'y': [6.5]},"{'Y': 1, 'Ba': 2, 'Cu': 3, 'O': 6.5}",1.0,0.0,,,
Sm Fe As O,{},"{'Sm': 1, 'Fe': 1, 'As': 1, 'O': 1}",55.0,0.0,,,10.1143/jpsj.80.013704
Nb,{},{'Nb': 1},9.2,0.0,,,10.1103/physrevx.3.041029
Nb Ir Te 4,{},"{'Nb': 1, 'Ir': 1, 'Te': 4}",0.4,0.0,,,
Nd 1.85 Ce 0.15 Cu O 4,{},"{'Nd': 1.85, 'Ce': 0.15, 'Cu': 1, 'O': 4}",18.0,0.0,,,
Nd 1.86 Ce 0.14 Cu O 4,{},"{'Nd': 1.86, 'Ce': 0.14, 'Cu': 1, 'O': 4}",25.0,0.0,,,
Nb 6 Sn 5,{},"{'Nb': 6, 'Sn': 5}",2.8,0.0,,,10.1088/0953-2048/19/8/r02
Nb Sn 2,{},"{'Nb': 1, 'Sn': 2}",2.68,0.0,,,10.1088/0953-2048/19/8/r02
Nb 3 Sn,{},"{'Nb': 3, 'Sn': 1}",18.3,0.0,,,10.1088/0953-2048/19/8/r02
Y H 10,{},"{'Y': 1, 'H': 10}",280.0,200.0,,,10.1038/s41586-019-1201-8
H 3 S,{},"{'H': 3, 'S': 1}",203.0,170.0,,,10.1038/s41586-019-1201-8
C 60,{},{'C': 60},52.0,0.0,crystals,,10.1103/physrevb.66.104514
W S 2,{},"{'W': 1, 'S': 2}",8.8,0.0,,,10.1088/1361-6463/aa9cd5
Mo S 2,{},"{'Mo': 1, 'S': 2}",10.8,0.0,thin films,,10.1088/1361-6463/aa9cd5
Nb Se 2,{},"{'Nb': 1, 'Se': 2}",7.3,0.0,,,10.1088/1361-6463/aa9cd5
Ni Bi 3,{},"{'Ni': 1, 'Bi': 3}",4.0,0.0,,,
Bi,{},{'Bi': 1},4.0,0.0,,,
Ni,{},{'Ni': 1},4.0,0.0,,,
Bi,{},{'Bi': 1},0.53,0.0,,,
Ce Co In 5,{},"{'Ce': 1, 'Co': 1, 'In': 5}",0.1,2.5,,,10.1038/nphys711
La 1.9 Sr 0.1 Cu O 4,{},"{'La': 1.9, 'Sr': 0.1, 'Cu': 1, 'O': 4}",30.0,0.0,,,10.1103/physrevlett.101.227001
La 2-x Sr x Cu O 4,{'x': [0.1]},"{'La': 1.9, 'Sr': 0.1, 'Cu': 1, 'O': 4}",30.0,0.0,single crystals,,10.1103/physrevlett.101.227001
(Ba K) Fe 2 As 2,{},"{'Ba': 1, 'K': 1, 'Fe': 2, 'As': 2}",40.0,0.0,,,10.1103/physrevb.88.014517
K Fe 2 As 2,{},"{'K': 1, 'Fe': 2, 'As': 2}",3.4,0.0,,,10.1103/physrevb.88.014517
Mg B 2,{},"{'Mg': 1, 'B': 2}",39.0,0.0,polycrystalline,,10.1103/physrevlett.87.137005
Mg B 2,{},"{'Mg': 1, 'B': 2}",39.0,0.0,,,10.1103/physrevlett.87.137005
Li Fe As,{},"{'Li': 1, 'Fe': 1, 'As': 1}",18.0,0.0,,,10.1088/0953-8984/21/34/345701
Na Fe As,{},"{'Na': 1, 'Fe': 1, 'As': 1}",9.0,0.0,,,10.1088/0953-8984/21/34/345701
Y Ba Cu O,{},"{'Y': 1, 'Ba': 1, 'Cu': 1, 'O': 1}",90.0,0.0,crystal,,10.1016/s0921-4534(03)00738-x
Nd Fe As (O F),{},"{'Nd': 1, 'Fe': 1, 'As': 1, 'O': 1, 'F': 1}",48.0,0.0,thin films,GaAs,10.1063/1.3464171
Sr Fe 2 As 2,{},"{'Sr': 1, 'Fe': 2, 'As': 2}",20.0,0.0,Thin film,,10.1063/1.3464171
Ba Fe 2 As 2,{},"{'Ba': 1, 'Fe': 2, 'As': 2}",20.0,0.0,Thin film,,10.1063/1.3464171
Ba Fe 2 As 2,{},"{'Ba': 1, 'Fe': 2, 'As': 2}",40.0,0.0,,,10.1063/1.3464171
Nb,{},{'Nb': 1},7.92,0.0,thin film,,10.1016/j.physc.2012.05.009
Mg B 2,{},"{'Mg': 1, 'B': 2}",40.0,0.0,,,10.1103/physrevb.66.014504
Mg B 2,{},"{'Mg': 1, 'B': 2}",37.5,0.0,,,10.1103/physrevb.74.132506
Fe Se,{},"{'Fe': 1, 'Se': 1}",8.0,20.0,,,10.1103/physrevb.95.180504
Hg Ba 2 Cu O 4,{},"{'Hg': 1, 'Ba': 2, 'Cu': 1, 'O': 4}",97.0,0.0,,,10.1103/physrevb.75.092502
Tl 2 Ba 2 Cu O 6,{},"{'Tl': 2, 'Ba': 2, 'Cu': 1, 'O': 6}",90.0,0.0,,,10.1103/physrevb.75.092502
La Ni As O,{},"{'La': 1, 'Ni': 1, 'As': 1, 'O': 1}",2.7,0.0,,,10.1103/physrevb.80.094506
La Ni P O,{},"{'La': 1, 'Ni': 1, 'P': 1, 'O': 1}",4.0,0.0,,,10.1103/physrevb.80.094506
Ba 1-x Na x Fe 2 As 2,{'x': []},,34.0,0.0,,,10.1103/physrevb.89.064514
Ba 1-x K x Fe 2 As 2,{'x': []},,38.0,0.0,,,10.1103/physrevb.89.064514
Bi,{},{'Bi': 1},0.41,0.0,film,,10.1103/physrevb.90.064501
Fe Se,{},"{'Fe': 1, 'Se': 1}",1.2,9.65,,,
Fe Se,{},"{'Fe': 1, 'Se': 1}",26.5,6.32,,,
Fe Se,{},"{'Fe': 1, 'Se': 1}",24.0,0.0,,,
Fe Se,{},"{'Fe': 1, 'Se': 1}",37.0,5.22,,,
Fe Se,{},"{'Fe': 1, 'Se': 1}",9.0,4.15,,,
Fe Se,{},"{'Fe': 1, 'Se': 1}",27.0,6.23,,,
Fe Se,{},"{'Fe': 1, 'Se': 1}",77.0,0.0,,,
Fe Se 4,{},"{'Fe': 1, 'Se': 4}",37.0,0.0,,,
Fe Se,{},"{'Fe': 1, 'Se': 1}",4.2,0.0,,,
Sb 14,{},{'Sb': 14},4.0,30.0,,,
Fe Se,{},"{'Fe': 1, 'Se': 1}",27.0,6.16,,,
Fe Se,{},"{'Fe': 1, 'Se': 1}",37.0,4.15,,,
Fe Se,{},"{'Fe': 1, 'Se': 1}",26.0,6.0,,,
U Te 2,{},"{'U': 1, 'Te': 2}",1.6,0.0,,,10.7566/jpsj.88.043702
Ca (Fe 0.944 Co 0.056) 2 As 2,{},"{'Ca': 1, 'Fe': 1.888, 'Co': 0.112, 'As': 2}",20.0,0.0,single crystal,,10.1209/0295-5075/100/57007
Mo Te 2,{},"{'Mo': 1, 'Te': 2}",0.1,0.0,,,10.1038/s41535-019-0189-5
Tl 2 Ba 2 Cu O 6+δ,{'δ': []},,88.0,0.0,,,10.1142/s0217984901001860
Bi 2 Sr 2 Ca Cu 2 O 8+δ,{'δ': []},,67.0,0.0,,,10.1142/s0217984901001860
Ba Fe 1.9 Co 0.1 As 2,{},"{'Ba': 1, 'Fe': 1.9, 'Co': 0.1, 'As': 2}",19.5,0.0,,,10.1007/s11433-018-9284-3
Eu Fe As 2,{},"{'Eu': 1, 'Fe': 1, 'As': 2}",17.5,0.0,,,10.1007/s11433-018-9284-3
Eu 0.85 La 0.15 Fe As 2,{},"{'Eu': 0.85, 'La': 0.15, 'Fe': 1, 'As': 2}",11.0,0.0,,,10.1007/s11433-018-9284-3
Eu 0.85 La 0.15 Fe As 2,{},"{'Eu': 0.85, 'La': 0.15, 'Fe': 1, 'As': 2}",8.0,0.0,,,10.1007/s11433-018-9284-3
Eu (Fe 0.96 Ni 0.04) As 2,{},"{'Eu': 1, 'Fe': 0.96, 'Ni': 0.04, 'As': 2}",17.5,0.0,,,10.1007/s11433-018-9284-3
Ba Fe 1.9 Ni 0.1 As 2,{},"{'Ba': 1, 'Fe': 1.9, 'Ni': 0.1, 'As': 2}",20.1,0.0,,,10.1007/s11433-018-9284-3
Nd 1-x Sr x Ni O 2,{'x': []},,14.9,0.0,,,
Sr Fe 2 As 2,{},"{'Sr': 1, 'Fe': 2, 'As': 2}",32.0,5.0,,,10.1103/physrevb.86.144525
Sr Fe 2 (As 1-x P x) 2,{'x': [0.3]},"{'Sr': 1, 'Fe': 2, 'As': 1.4, 'P': 0.6}",25.0,0.0,single crystals,,10.1103/physrevb.86.144525
Ba Fe 2 (As 0.67 P 0.33) 2,{},"{'Ba': 1, 'Fe': 2, 'As': 1.34, 'P': 0.66}",30.0,0.0,,,10.1103/physrevb.86.144525
Nb N,{},"{'Nb': 1, 'N': 1}",1.0,0.0,films,,10.1088/0953-2048/28/2/025003
Nb N,{},"{'Nb': 1, 'N': 1}",2.3,0.0,film,,10.1088/0953-2048/28/2/025003
Bi 2 Se 3,{},"{'Bi': 2, 'Se': 3}",0.8,0.0,,,10.1088/0953-2048/28/2/025003
Nb N,{},"{'Nb': 1, 'N': 1}",1.2,0.0,film,,10.1088/0953-2048/28/2/025003
C 2,{},{'C': 2},2.4,0.0,,,10.1088/0953-2048/28/2/025003
C 4,{},{'C': 4},2.4,0.0,,,10.1088/0953-2048/28/2/025003
Cr 11 Ge 19,{},"{'Cr': 11, 'Ge': 19}",91.0,0.0,,,10.1109/intmag.2003.1230412
Mn x Ge 1-x,{'x': []},,116.0,0.0,,,10.1109/intmag.2003.1230412
Cr 0.01 Ge 0.99,{},"{'Cr': 0.01, 'Ge': 0.99}",126.0,0.0,,,10.1109/intmag.2003.1230412
Ge,{},{'Ge': 1},120.0,0.0,,,10.1109/intmag.2003.1230412
Pd H,{},"{'Pd': 1, 'H': 1}",8.8,0.0,,,10.1016/j.jpcs.2018.08.020
Lu 5 Rh 6 Sn 18,{},"{'Lu': 5, 'Rh': 6, 'Sn': 18}",4.0,0.0,,,10.1103/physrevb.91.060503
Sc 5 Rh 6 Sn 18,{},"{'Sc': 5, 'Rh': 6, 'Sn': 18}",5.0,0.0,,,10.1103/physrevb.91.060503
Y 5 Rh 6 Sn 18,{},"{'Y': 5, 'Rh': 6, 'Sn': 18}",5.0,0.0,,,10.1103/physrevb.91.060503
Lu 5 Rh 6 Sn 18,{},"{'Lu': 5, 'Rh': 6, 'Sn': 18}",5.0,0.0,,,10.1103/physrevb.91.060503
Sm Ba 2 Cu 2.85 Al 0.15 O 7,{},"{'Sm': 1, 'Ba': 2, 'Cu': 2.85, 'Al': 0.15, 'O': 7}",56.5,0.0,,,10.1103/physrevb.65.180501
Nb,{},{'Nb': 1},8.6,0.0,film,,10.1209/epl/i2005-10032-4
Cd 2 Re 2 O 7,{},"{'Cd': 2, 'Re': 2, 'O': 7}",1.0,0.0,,,10.1103/physrevb.95.020102
Ti N,{},"{'Ti': 1, 'N': 1}",1.0,0.0,,,10.1063/1.4804286
Ti N,{},"{'Ti': 1, 'N': 1}",1.4,0.0,film,,10.1063/1.4804286
Ti,{},{'Ti': 1},1.4,0.0,film,,10.1063/1.4804286
Ti N,{},"{'Ti': 1, 'N': 1}",1.0,0.0,films,,10.1063/1.4804286
Ba Fe 2 (As 0.7 P 0.3) 2,{},"{'Ba': 1, 'Fe': 2, 'As': 1.4, 'P': 0.6}",30.0,0.0,,,10.1007/s10773-006-9274-1
Gd,{},{'Gd': 1},2.08,0.0,,,10.1103/physrevb.67.224408
N I Ti Pr,{},"{'N': 1, 'I': 1, 'Ti': 1, 'Pr': 1}",2.08,0.0,,,10.1103/physrevb.67.224408
Al,{},{'Al': 1},1.1,0.0,,,10.1088/0953-2048/29/10/104006
Mg B 2,{},"{'Mg': 1, 'B': 2}",20.0,0.0,,,10.1016/s0921-4534(02)01840-3
Bi 2 Sr 2-x La x Cu O 6+δ,"{'δ': [], 'x': []}",,29.0,0.0,,,10.1007/978-94-010-0544-9_11
Ba 1-x K x Bi O,{'x': []},,30.0,0.0,,,10.1039/c0jm03274c
Ca 5 C 60,{},"{'Ca': 5, 'C': 60}",8.0,0.0,,,10.1039/c0jm03274c
Mg B 2,{},"{'Mg': 1, 'B': 2}",39.0,0.0,,,10.1039/c0jm03274c
La 0.85 Sr 0.15 Fe As O,{},"{'La': 0.85, 'Sr': 0.15, 'Fe': 1, 'As': 1, 'O': 1}",25.0,0.0,,,10.1039/c0jm03274c
Li Fe P,{},"{'Li': 1, 'Fe': 1, 'P': 1}",5.0,0.0,,,10.1039/c0jm03274c
Pu Co Ga 5,{},"{'Pu': 1, 'Co': 1, 'Ga': 5}",18.0,0.0,,,10.1039/c0jm03274c
Hg Ba 2 Cu O 4+δ,{'δ': [0.08]},"{'Hg': 1, 'Ba': 2, 'Cu': 1, 'O': 4.08}",98.0,0.0,,,10.1039/c0jm03274c
Mg B 2,{},"{'Mg': 1, 'B': 2}",1.0,0.0,,,10.1039/c0jm03274c
La Fe P O,{},"{'La': 1, 'Fe': 1, 'P': 1, 'O': 1}",6.6,0.0,,,10.1039/c0jm03274c
Hg Ba 2 Ca 2 Cu 3 O 8+δ,{'δ': []},,138.0,0.0,,,10.1039/c0jm03274c
Hg,{},{'Hg': 1},23.0,0.0,,,10.1039/c0jm03274c
Fe 1+x Se 0.6 Te 0.4,{'x': []},,14.0,0.0,,,10.1039/c0jm03274c
Sm Fe As O 1-x F x,{'x': []},,55.0,0.0,,,10.1039/c0jm03274c
Nb 3 Ge,{},"{'Nb': 3, 'Ge': 1}",23.0,0.0,,,10.1039/c0jm03274c
La 2 Cu O 4,{},"{'La': 2, 'Cu': 1, 'O': 4}",35.0,0.0,,,10.1039/c0jm03274c
Li Fe As,{},"{'Li': 1, 'Fe': 1, 'As': 1}",18.0,0.0,,,10.1039/c0jm03274c
K 3 C 60,{},"{'K': 3, 'C': 60}",19.0,0.0,,,10.1039/c0jm03274c
Bi,{},{'Bi': 1},13.0,0.0,,,10.1039/c0jm03274c
Mg B 2,{},"{'Mg': 1, 'B': 2}",41.0,0.0,,,10.1039/c0jm03274c
Ba 0.6 K 0.4 Fe 2 As 2,{},"{'Ba': 0.6, 'K': 0.4, 'Fe': 2, 'As': 2}",18.0,0.0,,,10.1039/c0jm03274c
Rb Cs 2 C 60,{},"{'Rb': 1, 'Cs': 2, 'C': 60}",33.0,0.0,,,10.1039/c0jm03274c
Nb 3 Ge,{},"{'Nb': 3, 'Ge': 1}",138.0,0.0,,,10.1039/c0jm03274c
Ba Bi 1-x Pb x O 3,{'x': []},,13.0,0.0,,,10.1039/c0jm03274c
Y Pd 2 B 2 C,{},"{'Y': 1, 'Pd': 2, 'B': 2, 'C': 1}",23.0,0.0,,,10.1039/c0jm03274c
Sr Fe 1.57 Ir 0.43 As 2,{},"{'Sr': 1, 'Fe': 1.57, 'Ir': 0.43, 'As': 2}",25.0,0.0,,,10.1063/1.3290983
Ba Fe 2 As 2,{},"{'Ba': 1, 'Fe': 2, 'As': 2}",28.0,0.0,,,10.1063/1.3290983
(Ba K) Fe 2 As 2,{},"{'Ba': 1, 'K': 1, 'Fe': 2, 'As': 2}",28.0,0.0,,,10.1063/1.3290983
(Ba K) Fe 2 As 2,{},"{'Ba': 1, 'K': 1, 'Fe': 2, 'As': 2}",22.0,0.0,,,10.1063/1.3290983
Sr Fe 2 As 2,{},"{'Sr': 1, 'Fe': 2, 'As': 2}",38.0,0.0,,,10.1063/1.3290983
Ba Fe 2 As 2,{},"{'Ba': 1, 'Fe': 2, 'As': 2}",38.0,0.0,,,10.1063/1.3290983
Ca Fe 2 As 2,{},"{'Ca': 1, 'Fe': 2, 'As': 2}",38.0,0.0,,,10.1063/1.3290983
Sr Fe 2 As 2,{},"{'Sr': 1, 'Fe': 2, 'As': 2}",28.0,0.0,,,10.1063/1.3290983
Ca Fe 2 As 2,{},"{'Ca': 1, 'Fe': 2, 'As': 2}",28.0,0.0,,,10.1063/1.3290983
Ba Fe 1.886 Rh 0.114 As 2,{},"{'Ba': 1, 'Fe': 1.886, 'Rh': 0.114, 'As': 2}",24.0,0.0,,,10.1063/1.3290983
Ba (Fe Co) 2 As 2,{},"{'Ba': 1, 'Fe': 2, 'Co': 2, 'As': 2}",22.0,0.0,,,10.1063/1.3290983
Cs 3 C 60,{},"{'Cs': 3, 'C': 60}",38.0,12.0,,,10.1088/0953-8984/24/34/345701
Fe Te,{},"{'Fe': 1, 'Te': 1}",10.0,0.0,films,,10.1103/physrevb.82.020508
Fe Te,{},"{'Fe': 1, 'Te': 1}",2.0,0.0,films,,10.1103/physrevb.82.020508
O 2,{},{'O': 2},10.0,0.0,,,10.1103/physrevb.82.020508
K Ni 2 Se 2,{},"{'K': 1, 'Ni': 2, 'Se': 2}",0.8,0.0,,,10.1103/physrevb.87.144305
Fe Se,{},"{'Fe': 1, 'Se': 1}",77.0,0.0,films,SrTiO 3,10.1088/1674-1056/26/12/127401
Sr 2 Ru O 4,{},"{'Sr': 2, 'Ru': 1, 'O': 4}",1.5,0.0,,,10.1143/jpsj.79.024714
Zr 30 Cu 70,{},"{'Zr': 30, 'Cu': 70}",95.0,0.0,,,10.1103/physrevb.65.180201
Fe 1+δ Te,{'δ': []},,8.0,0.0,,,10.1088/1742-6596/568/2/022012
Ni Bi 3,{},"{'Ni': 1, 'Bi': 3}",4.4,0.0,polycrystalline,,10.1088/0953-2048/27/10/105001
Y Ba 2 Cu 3 O 7-δ,{'δ': []},,85.0,0.0,,,10.1016/s0921-4526(02)01518-1
Mg B 2,{},"{'Mg': 1, 'B': 2}",39.0,0.0,,,10.1109/tasc.2003.812213
Mg B 2,{},"{'Mg': 1, 'B': 2}",41.7,0.0,"films, single crystals",,10.1109/tasc.2003.812213
Mg B 2,{},"{'Mg': 1, 'B': 2}",37.5,0.0,films,,10.1109/tasc.2003.812213
Tl 2 Ba 2 Cu O 6+δ,{'δ': []},,15.0,0.0,,,10.1103/physrevb.92.195130
Mg B 2,{},"{'Mg': 1, 'B': 2}",39.0,0.0,,,10.1063/1.1424465
U Co Ge,{},"{'U': 1, 'Co': 1, 'Ge': 1}",0.5,0.0,,,
Y Ba 2 Cu 3 O x,{'x': []},,93.5,0.0,,,
Sr Ca Cu 2 O 8+δ,{'δ': []},,67.0,0.0,,,
Tl 2 Sr 2 Cu O 6+δ,{'δ': []},,23.0,0.0,,,
Ho 2 Ti 2 O 7,{},"{'Ho': 2, 'Ti': 2, 'O': 7}",0.18,0.0,,,10.1126/science.1064761
Cu 2 Te 2 O 5 Cl 2,{},"{'Cu': 2, 'Te': 2, 'O': 5, 'Cl': 2}",23.0,0.0,,,10.1016/s0022-3697(02)00056-2
Bi 2 Sr 2 Ca Cu 2 O 8,{},"{'Bi': 2, 'Sr': 2, 'Ca': 1, 'Cu': 2, 'O': 8}",95.0,0.0,,,10.1103/physrevlett.83.840
Tl 2 Ba 2 Ca Cu 2 O 8+x,{'x': []},,105.0,0.0,thin films,,
Ce O 2,{},"{'Ce': 1, 'O': 2}",105.0,0.0,,,
K 0.8 Fe 1.6 Fe 2,{},"{'K': 0.8, 'Fe': 3.6}",30.0,0.0,,,10.1142/s0217984912300207
Tl 0.8 Fe 1.6 Fe 2,{},"{'Tl': 0.8, 'Fe': 3.6}",30.0,0.0,,,10.1142/s0217984912300207
Cs 0.8 Fe 1.6 Fe 2,{},"{'Cs': 0.8, 'Fe': 3.6}",30.0,0.0,,,10.1142/s0217984912300207
Li Fe As,{},"{'Li': 1, 'Fe': 1, 'As': 1}",18.0,0.0,,,10.1142/s0217984912300207
Ba 1-x K x Fe 2 As 2,{'x': []},,38.0,0.0,,,10.1142/s0217984912300207
H P 2 S,{},"{'H': 1, 'P': 2, 'S': 1}",0.8,0.0,,,10.1038/srep04465
(Sr Ca) 3 Ir 4 Sn 13,{},"{'Sr': 3, 'Ca': 3, 'Ir': 4, 'Sn': 13}",8.9,0.0,,,10.1103/physrevb.89.075117
Ca 3 Ir 4 Sn 13,{},"{'Ca': 3, 'Ir': 4, 'Sn': 13}",7.0,18.0,,,10.1103/physrevb.89.075117
(Sr Ca) 3 Ir 4 Sn 13,{},"{'Sr': 3, 'Ca': 3, 'Ir': 4, 'Sn': 13}",8.9,40.0,,,10.1103/physrevb.89.075117
Sr 3 Ir 4 Sn 13,{},"{'Sr': 3, 'Ir': 4, 'Sn': 13}",5.0,0.0,,,10.1103/physrevb.89.075117
Gd,{},{'Gd': 1},56.0,0.0,,,10.1016/j.physc.2007.03.334
Ba 1-x K x Bi O 3,{'x': []},,30.0,0.0,,,10.1142/s0217979203016133
Ce Co In 5,{},"{'Ce': 1, 'Co': 1, 'In': 5}",2.3,0.0,Single crystals,,10.1103/physrevlett.90.187001
Ce Co In 5,{},"{'Ce': 1, 'Co': 1, 'In': 5}",2.3,0.0,,,10.1103/physrevlett.90.187001
(Y Ca) Ba 2 Cu 3 O 7,{},"{'Y': 1, 'Ca': 1, 'Ba': 2, 'Cu': 3, 'O': 7}",90.0,0.0,,,
Ba 0.6 K 0.4 Fe 2 As 2,{},"{'Ba': 0.6, 'K': 0.4, 'Fe': 2, 'As': 2}",37.0,0.0,,,10.1103/physrevb.82.014520
Fe Te 0.55 Se 0.45,{},"{'Fe': 1, 'Te': 0.55, 'Se': 0.45}",14.5,0.0,,,10.1103/physrevb.85.214518
Ce Co In 5,{},"{'Ce': 1, 'Co': 1, 'In': 5}",2.25,0.0,single crystal,,
Rb Eu Fe 4 As 4,{},"{'Rb': 1, 'Eu': 1, 'Fe': 4, 'As': 4}",37.0,0.0,single crystal,,10.1103/physrevb.99.180502
Eu Fe 2 As 2,{},"{'Eu': 1, 'Fe': 2, 'As': 2}",23.0,0.0,,,10.1103/physrevb.99.180502
Rb Eu Fe 4 As 4,{},"{'Rb': 1, 'Eu': 1, 'Fe': 4, 'As': 4}",30.0,0.0,,,10.1103/physrevb.99.180502
Ba Ti 2 Sb 2 O,{},"{'Ba': 1, 'Ti': 2, 'Sb': 2, 'O': 1}",1.2,0.0,,,10.1103/physrevb.87.054506
Ba Ti 2 Sb 2 O,{},"{'Ba': 1, 'Ti': 2, 'Sb': 2, 'O': 1}",9.0,0.0,,,10.1103/physrevb.87.054506
Ba 1-x Na x Ti 2 Sb 2 O,{'x': []},,5.5,0.0,,,10.1103/physrevb.87.054506
Sr 2 Ru O 4,{},"{'Sr': 2, 'Ru': 1, 'O': 4}",1.0,0.0,,,10.1103/physrevb.87.054506
Ba Ti 2 Sb 2 O,{},"{'Ba': 1, 'Ti': 2, 'Sb': 2, 'O': 1}",2.7,0.0,,,10.1103/physrevb.87.054506
Mg B 2,{},"{'Mg': 1, 'B': 2}",20.0,0.0,,,10.1063/1.2779095
Fe Te 1-x Se x,{'x': []},,14.5,0.0,single crystals,,10.1103/physrevmaterials.3.114801
Fe Se,{},"{'Fe': 1, 'Se': 1}",9.0,0.0,,,10.1007/s11434-015-0842-8
Fe Se,{},"{'Fe': 1, 'Se': 1}",21.0,0.0,,,10.1007/s11434-015-0842-8
Fe Se,{},"{'Fe': 1, 'Se': 1}",65.0,0.0,thin film,Nb doped SrTiO 3,10.1007/s11434-015-0842-8
Fe Se,{},"{'Fe': 1, 'Se': 1}",21.0,0.0,film,insulating STO,10.1007/s11434-015-0842-8
Fe Se,{},"{'Fe': 1, 'Se': 1}",65.0,0.0,film,,10.1007/s11434-015-0842-8
Fe Se,{},"{'Fe': 1, 'Se': 1}",65.0,0.0,thin film,,10.1007/s11434-015-0842-8
Sr 2 Ru O 4 Ru,{},"{'Sr': 2, 'Ru': 2, 'O': 4}",3.0,0.0,,,10.1143/jpsj.74.531
Fe Te 1-y Se y,{'y': []},,14.0,0.0,,,10.1088/0953-2048/28/9/095005
Ce Rh In 5,{},"{'Ce': 1, 'Rh': 1, 'In': 5}",2.1,17.0,,,10.1007/s003390101121
Y,{},{'Y': 1},4.2,0.0,,,
La 1.2 Sr 1.8 Mn 2 O 7,{},"{'La': 1.2, 'Sr': 1.8, 'Mn': 2, 'O': 7}",126.0,0.0,,,
Eu S,{},"{'Eu': 1, 'S': 1}",16.5,0.0,,,10.1016/s0375-9601(00)00340-6
Ce Cu 2 Si 2,{},"{'Ce': 1, 'Cu': 2, 'Si': 2}",0.6,0.0,,,10.1126/sciadv.1601667
Ce Cu 2 Si 2,{},"{'Ce': 1, 'Cu': 2, 'Si': 2}",0.71,0.0,,,10.1126/sciadv.1601667
Sr 2 Ru O 4,{},"{'Sr': 2, 'Ru': 1, 'O': 4}",1.0,0.0,,,10.7566/jpsj.83.061019
Mg B 2,{},"{'Mg': 1, 'B': 2}",39.0,0.0,,,10.1209/epl/i2002-00330-9
Mg B 2,{},"{'Mg': 1, 'B': 2}",40.0,0.0,,,10.1209/epl/i2002-00330-9
Bi 2 Sr 2 Cu O 6,{},"{'Bi': 2, 'Sr': 2, 'Cu': 1, 'O': 6}",1.7,0.0,,,10.1103/physrevb.65.220501
Bi 2 Sr 2 Cu O 6,{},"{'Bi': 2, 'Sr': 2, 'Cu': 1, 'O': 6}",17.0,0.0,,,10.1103/physrevb.65.220501
Mn Si,{},"{'Mn': 1, 'Si': 1}",30.0,0.0,,,10.1103/physrevb.64.052404
Ta Se 2,{},"{'Ta': 1, 'Se': 2}",2.0,0.0,,,10.1088/0953-8984/27/36/365701
Ta 0.9 W 0.1 Se 2,{},"{'Ta': 0.9, 'W': 0.1, 'Se': 2}",2.0,0.0,,,10.1088/0953-8984/27/36/365701
Mg B 2,{},"{'Mg': 1, 'B': 2}",40.0,0.0,,,10.1007/s10948-010-0830-9
Ce Pt 3 Si,{},"{'Ce': 1, 'Pt': 3, 'Si': 1}",0.5,0.0,,,10.1088/1367-2630/11/5/055054
Ce Ir In 5,{},"{'Ce': 1, 'Ir': 1, 'In': 5}",1.2,0.0,,,10.1088/1367-2630/11/5/055054
Ce Pt 3 Si,{},"{'Ce': 1, 'Pt': 3, 'Si': 1}",0.73,0.0,,,10.1088/1367-2630/11/5/055054
Ce Pt 3 Si,{},"{'Ce': 1, 'Pt': 3, 'Si': 1}",0.75,0.0,,,10.1088/1367-2630/11/5/055054
La Fe As O 7,{},"{'La': 1, 'Fe': 1, 'As': 1, 'O': 7}",1.8,0.0,,,10.1103/physrevb.81.094506
La Fe As O 1-x F x,{'x': []},,26.0,0.0,,,10.1103/physrevb.81.094506
Nd Fe 1-x Rh x As O,{'x': [0.1]},"{'Nd': 1, 'Fe': 0.9, 'Rh': 0.1, 'As': 1, 'O': 1}",18.0,0.0,,,10.1103/physrevb.81.094506
Fe Se,{},"{'Fe': 1, 'Se': 1}",40.0,0.0,,,10.1038/ncomms11116
Fe Se,{},"{'Fe': 1, 'Se': 1}",40.0,0.0,film,,10.1038/ncomms11116
Li 0.84 Fe 0.16 O H Fe 0.98 Se,{},"{'Li': 0.84, 'Fe': 1.14, 'O': 1, 'H': 1, 'Se': 1}",41.0,0.0,,,10.1038/ncomms11116
Y Ba 2 Cu 2 O 7-δ,{'δ': []},,62.2,0.0,,,10.1103/physrevb.73.104517
Tl 2 Ca 2 Ba 2 Cu 3 O 10,{},"{'Tl': 2, 'Ca': 2, 'Ba': 2, 'Cu': 3, 'O': 10}",121.5,0.0,,,10.1103/physrevb.73.104517
Mg B 2,{},"{'Mg': 1, 'B': 2}",38.6,0.0,,,10.1103/physrevb.73.104517
Pr Os 4 Sb 12,{},"{'Pr': 1, 'Os': 4, 'Sb': 12}",1.0,0.0,,,10.1088/0953-8984/15/28/327
Pr Os 4 Sb 12,{},"{'Pr': 1, 'Os': 4, 'Sb': 12}",1.85,0.0,,,10.1088/0953-8984/15/28/327
Y Ba 23 O 6+y,{'y': [0.6]},"{'Y': 1, 'Ba': 23, 'O': 6.6}",60.0,0.0,,,10.1103/revmodphys.75.1201
Bi 2 Sr 2 Ca Cu 2 O 8+δ,{'δ': []},,86.0,0.0,,,10.1103/revmodphys.75.1201
La 2-x Sr x Cu O 4,{'x': []},,38.0,0.0,,,10.1103/revmodphys.75.1201
Rb Cr 3 As 3,{},"{'Rb': 1, 'Cr': 3, 'As': 3}",7.3,0.0,,,10.1103/physrevb.100.214512
K Cr 3 As 3,{},"{'K': 1, 'Cr': 3, 'As': 3}",5.0,0.0,,,10.1103/physrevb.100.214512
Rb Cr 3 As 3,{},"{'Rb': 1, 'Cr': 3, 'As': 3}",7.3,0.0,single crystals,,10.1103/physrevb.100.214512
Ba Fe 2 Se 3,{},"{'Ba': 1, 'Fe': 2, 'Se': 3}",11.0,0.0,,,10.1088/0953-8984/23/40/402201
Fe Se,{},"{'Fe': 1, 'Se': 1}",11.0,0.0,,,10.1088/0953-8984/23/40/402201
Pr Os 4 Sb 12,{},"{'Pr': 1, 'Os': 4, 'Sb': 12}",1.82,0.0,,,10.1103/physrevlett.89.157001
Bi 2 Sr 2 Ca Cu 2 O 8,{},"{'Bi': 2, 'Sr': 2, 'Ca': 1, 'Cu': 2, 'O': 8}",82.0,0.0,crystals,,