Material,Substitutions,Composition,Tc (K),Pressure (GPa),Shape,Substrate,DOI
Tl 2 Ba 2 Cu O 6,{},"{'Tl': 2, 'Ba': 2, 'Cu': 1, 'O': 6}",23.0,0.0,,,
Bi 2 Sr 2 Cu O 6,{},"{'Bi': 2, 'Sr': 2, 'Cu': 1, 'O': 6}",1.0,0.0,,,
Bi 2 Sr 2 Cu O 6,{},"{'Bi': 2, 'Sr': 2, 'Cu': 1, 'O': 6}",26.5,0.0,,,
Bi 2 Sr 2 Cu O 6,{},"{'Bi': 2, 'Sr': 2, 'Cu': 1, 'O': 6}",13.0,0.0,,,
Tl 2 Ba 2 Cu O 6,{},"{'Tl': 2, 'Ba': 2, 'Cu': 1, 'O': 6}",30.0,0.0,,,
Bi 2 Sr 2 Ca Cu 2 O 8,{},"{'Bi': 2, 'Sr': 2, 'Ca': 1, 'Cu': 2, 'O': 8}",66.0,0.0,single crystals,,
Y Ba 2 Cu 3 O 7,{},"{'Y': 1, 'Ba': 2, 'Cu': 3, 'O': 7}",91.0,0.0,films,,
Y Ba 2 Cu 3 O 6.9,{},"{'Y': 1, 'Ba': 2, 'Cu': 3, 'O': 6.9}",92.7,0.0,,,
La Fe As O 0.89 F 0.11,{},"{'La': 1, 'Fe': 1, 'As': 1, 'O': 0.89, 'F': 0.11}",26.0,0.0,,,10.1209/0295-5075/102/37010
La 1.9 Sr 0.1 Cu O 4,{},"{'La': 1.9, 'Sr': 0.1, 'Cu': 1, 'O': 4}",30.0,0.0,single crystal,,10.1103/physrevlett.82.4918
La 1.84 Sr 0.16 Cu O 4,{},"{'La': 1.84, 'Sr': 0.16, 'Cu': 1, 'O': 4}",31.0,0.0,thin film,,10.1103/physrevlett.82.4918
La 1.84 Sr 0.16 Cu O 4,{},"{'La': 1.84, 'Sr': 0.16, 'Cu': 1, 'O': 4}",38.0,0.0,,,10.1103/physrevlett.82.4918
Y Ba 2 Cu 3 O 7,{},"{'Y': 1, 'Ba': 2, 'Cu': 3, 'O': 7}",93.0,0.0,,,10.1103/physrevb.78.012505
Sm (O 1-x F x) Fe As,{'x': []},,53.0,0.0,,,10.1103/physrevb.78.012505
La O Fe P,{},"{'La': 1, 'O': 1, 'Fe': 1, 'P': 1}",4.0,0.0,,,10.1103/physrevb.78.012505
Ce (O 1-x F x) Fe As,{'x': []},,41.0,0.0,,,10.1103/physrevb.78.012505
La O Ni P,{},"{'La': 1, 'O': 1, 'Ni': 1, 'P': 1}",9.0,0.0,,,10.1103/physrevb.78.012505
La (O 1-x F x) Fe As,{'x': []},,26.0,0.0,,,10.1103/physrevb.78.012505
Sm (O 1-x F x) Fe As,{'x': []},,50.0,0.0,,,10.1103/physrevb.78.012505
La O Fe As,{},"{'La': 1, 'O': 1, 'Fe': 1, 'As': 1}",3.0,0.0,,,10.1103/physrevb.78.012505
Sm (O 1-x F x) Fe As,{'x': []},,43.0,0.0,,,10.1103/physrevb.78.012505
Pr Os 4 Sb 12,{},"{'Pr': 1, 'Os': 4, 'Sb': 12}",1.2,0.0,,,10.1103/physrevb.69.060504
La Os 4 Sb 12,{},"{'La': 1, 'Os': 4, 'Sb': 12}",1.0,0.0,,,10.1103/physrevb.69.060504
Pr Os 4 Sb 12,{},"{'Pr': 1, 'Os': 4, 'Sb': 12}",1.85,0.0,,,10.1103/physrevb.69.060504
Ce (O F) Bi S 2,{},"{'Ce': 1, 'O': 1, 'F': 1, 'Bi': 1, 'S': 2}",7.0,0.0,single crystals,,10.1515/nsm-2015-0007
Ce (O F) Bi S 2,{},"{'Ce': 1, 'O': 1, 'F': 1, 'Bi': 1, 'S': 2}",3.0,0.0,single crystals,,10.1515/nsm-2015-0007
Pr (O F) Bi S 2,{},"{'Pr': 1, 'O': 1, 'F': 1, 'Bi': 1, 'S': 2}",4.0,0.0,single crystals,,10.1515/nsm-2015-0007
Ce (O F) Bi S 2,{},"{'Ce': 1, 'O': 1, 'F': 1, 'Bi': 1, 'S': 2}",2.0,0.0,,,10.1515/nsm-2015-0007
Ce (O F) Bi S 2,{},"{'Ce': 1, 'O': 1, 'F': 1, 'Bi': 1, 'S': 2}",3.0,0.0,,,10.1515/nsm-2015-0007
La (O F) Bi S 2,{},"{'La': 1, 'O': 1, 'F': 1, 'Bi': 1, 'S': 2}",2.0,0.0,Single crystals,,10.1515/nsm-2015-0007
Nd (O F) Bi S 2,{},"{'Nd': 1, 'O': 1, 'F': 1, 'Bi': 1, 'S': 2}",5.0,0.0,single crystals,,10.1515/nsm-2015-0007
Fe 1.03 Te 0.7 Se 0.3,{},"{'Fe': 1.03, 'Te': 0.7, 'Se': 0.3}",13.0,0.0,,,10.1103/physrevlett.105.197001
Fe 1.03 Te 0.7 Se 0.3,{},"{'Fe': 1.03, 'Te': 0.7, 'Se': 0.3}",13.0,0.0,single crystals,,10.1103/physrevlett.105.197001
Nb,{},{'Nb': 1},9.2,0.0,,,10.1103/physrevb.87.054502
Fe Se,{},"{'Fe': 1, 'Se': 1}",8.0,0.0,crystal,,10.1038/s41535-018-0087-2
La 2-x Sr x Cu O 4+δ,"{'δ': [], 'x': []}",,15.0,0.0,,,10.1103/physrevb.75.012508
Y Ba 2 Cu 3 O 6+δ,{'δ': [0.35]},"{'Y': 1, 'Ba': 2, 'Cu': 3, 'O': 6.35}",60.0,0.0,,,10.1103/physrevb.75.012508
Ca 0.32 Na 0.68 Fe 2 As 2,{},"{'Ca': 0.32, 'Na': 0.68, 'Fe': 2, 'As': 2}",34.0,0.0,,,10.1103/physrevb.90.054524
Pb In,{},"{'Pb': 1, 'In': 1}",7.0,0.0,,,10.1088/0256-307x/29/1/017401
Ce Ir In 5,{},"{'Ce': 1, 'Ir': 1, 'In': 5}",1.2,0.0,,,10.1103/physrevb.64.220504
Ce Ir In 5,{},"{'Ce': 1, 'Ir': 1, 'In': 5}",0.4,0.0,,,10.1103/physrevb.64.220504
Mo B 2,{},"{'Mo': 1, 'B': 2}",3.0,60.0,,,
Mg B 2,{},"{'Mg': 1, 'B': 2}",23.0,90.0,,,
H 3 S,{},"{'H': 3, 'S': 1}",280.0,170.0,,,
Mo B 2,{},"{'Mo': 1, 'B': 2}",6.0,0.0,,,
Mg B 2,{},"{'Mg': 1, 'B': 2}",32.0,100.0,,,
Mo B 2,{},"{'Mo': 1, 'B': 2}",32.0,0.0,,,
Rb V 3 Sb 5,{},"{'Rb': 1, 'V': 3, 'Sb': 5}",0.93,0.0,,,
K V 3 Sb 5,{},"{'K': 1, 'V': 3, 'Sb': 5}",1.24,0.0,,,
Lu Ca x Ba 3 Cu 3 O y Te 0.5,"{'x': [1.25], 'y': []}",,83.0,0.0,,,10.1016/j.physc.2009.05.118
Re 6 Zr,{},"{'Re': 6, 'Zr': 1}",6.7,0.0,,,10.1103/physrevb.96.064521
Re 6 Zr,{},"{'Re': 6, 'Zr': 1}",0.28,0.0,,,10.1103/physrevb.96.064521
Re 6 Zr,{},"{'Re': 6, 'Zr': 1}",6.75,0.0,,,10.1103/physrevb.96.064521
Eu 3 Bi 2 S 4 F 4,{},"{'Eu': 3, 'Bi': 2, 'S': 4, 'F': 4}",1.5,0.0,,,10.1103/physrevb.90.220510
Bi 4 O 4 S 3,{},"{'Bi': 4, 'O': 4, 'S': 3}",8.6,0.0,,,10.1103/physrevb.90.220510
La Bi S 2 O 0.5 F 0.5,{},"{'La': 1, 'Bi': 1, 'S': 2, 'O': 0.5, 'F': 0.5}",3.3,0.0,,,10.1103/physrevb.90.220510
La Bi S 2 O 0.5 F 0.5,{},"{'La': 1, 'Bi': 1, 'S': 2, 'O': 0.5, 'F': 0.5}",10.7,0.0,,,10.1103/physrevb.90.220510
C H I 3,{},"{'C': 1, 'H': 1, 'I': 3}",140.0,0.0,,,10.1140/epjb/e20020058
Tl 2 Ba 2 Cu O 6,{},"{'Tl': 2, 'Ba': 2, 'Cu': 1, 'O': 6}",90.0,0.0,,,10.1088/0953-8984/8/48/023
Bi 2 Sr 2 Ca Cu 2 O 8,{},"{'Bi': 2, 'Sr': 2, 'Ca': 1, 'Cu': 2, 'O': 8}",82.0,0.0,,,10.1088/0953-8984/8/48/023
Y Ba 2 Cu 4 O 7,{},"{'Y': 1, 'Ba': 2, 'Cu': 4, 'O': 7}",82.0,0.0,crystal,,10.1088/0953-8984/8/48/023
Y Ba 2 Cu 3 O 7,{},"{'Y': 1, 'Ba': 2, 'Cu': 3, 'O': 7}",93.5,0.0,,,10.1088/0953-8984/8/48/023
Bi 2 Sr 2 Ca Cu 2 O 8,{},"{'Bi': 2, 'Sr': 2, 'Ca': 1, 'Cu': 2, 'O': 8}",70.0,0.0,,,10.1088/0953-8984/8/48/023
Tl 2 Ba 2 Cu O 6,{},"{'Tl': 2, 'Ba': 2, 'Cu': 1, 'O': 6}",23.0,0.0,,,10.1088/0953-8984/8/48/023
Bi 2 Sr 2 Ca Cu 2 O 8,{},"{'Bi': 2, 'Sr': 2, 'Ca': 1, 'Cu': 2, 'O': 8}",67.0,0.0,,,10.1088/0953-8984/8/48/023
Bi 2 Sr 2 Ca Cu 2 O 8,{},"{'Bi': 2, 'Sr': 2, 'Ca': 1, 'Cu': 2, 'O': 8}",90.0,0.0,,,10.1088/0953-8984/8/48/023
Bi 2 Sr 2 Ca Cu 2 O 8,{},"{'Bi': 2, 'Sr': 2, 'Ca': 1, 'Cu': 2, 'O': 8}",67.0,0.0,crystal,,10.1088/0953-8984/8/48/023
Y Ba 2 Cu 4 O 7,{},"{'Y': 1, 'Ba': 2, 'Cu': 4, 'O': 7}",80.0,0.0,,,10.1088/0953-8984/8/48/023
Bi 2 Sr 2 Ca Cu 2 O 8,{},"{'Bi': 2, 'Sr': 2, 'Ca': 1, 'Cu': 2, 'O': 8}",82.0,0.0,single crystal,,10.1088/0953-8984/8/48/023
H 3 S,{},"{'H': 3, 'S': 1}",203.0,170.0,,,
(Sr Ca) 14 Cu 24 O 41,{},"{'Sr': 14, 'Ca': 14, 'Cu': 24, 'O': 41}",10.0,0.0,,,
Hg Ba 2 Cu O 4,{},"{'Hg': 1, 'Ba': 2, 'Cu': 1, 'O': 4}",100.0,0.0,,,
Sr 2 V O 3 Fe As,{},"{'Sr': 2, 'V': 1, 'O': 3, 'Fe': 1, 'As': 1}",37.0,0.0,,,10.1209/0295-5075/89/57008
Sr 2 V O 3 Fe As,{},"{'Sr': 2, 'V': 1, 'O': 3, 'Fe': 1, 'As': 1}",40.0,0.0,,,10.1209/0295-5075/89/57008
Sr 2 Sc O 3 Fe P,{},"{'Sr': 2, 'Sc': 1, 'O': 3, 'Fe': 1, 'P': 1}",17.0,0.0,,,10.1209/0295-5075/89/57008
Zr N Cl,{},"{'Zr': 1, 'N': 1, 'Cl': 1}",14.0,0.0,,,10.1103/physrevb.98.214507
Ce Rh Si 3,{},"{'Ce': 1, 'Rh': 1, 'Si': 3}",1.3,0.0,,,10.1103/physrevb.90.104504
Nb N,{},"{'Nb': 1, 'N': 1}",17.0,0.0,films,,10.1088/0953-2048/29/10/105011
Nb N,{},"{'Nb': 1, 'N': 1}",17.0,0.0,thin films,,10.1088/0953-2048/29/10/105011
Nb N,{},"{'Nb': 1, 'N': 1}",17.06,0.0,thin films,,10.1088/0953-2048/29/10/105011
Bi 2 Sr 2 Ca Cu 2 O 8,{},"{'Bi': 2, 'Sr': 2, 'Ca': 1, 'Cu': 2, 'O': 8}",58.0,0.0,,,10.1103/physrevb.68.174520
La Pt Si,{},"{'La': 1, 'Pt': 1, 'Si': 1}",3.7,0.0,,,10.1088/1361-648x/aac61d
Al,{},{'Al': 1},1.2,0.0,,,10.1117/2.1201507.006009
La 2-x Ba x Cu O 4,{'x': []},,4.2,0.0,,,
Nb 3 Ge,{},"{'Nb': 3, 'Ge': 1}",4.2,0.0,,,
Cs V 3 Sb 5,{},"{'Cs': 1, 'V': 3, 'Sb': 5}",4.8,0.0,,,10.1016/j.stam.2005.06.005
Bi Pd,{},"{'Bi': 1, 'Pd': 1}",3.8,0.0,,,10.1038/ncomms7633
Fe Se,{},"{'Fe': 1, 'Se': 1}",48.0,0.0,,,10.1103/physrevlett.117.067001
Fe Se,{},"{'Fe': 1, 'Se': 1}",65.0,0.0,films,,10.1103/physrevlett.117.067001
Ca 3 Ir 4 Sn 13,{},"{'Ca': 3, 'Ir': 4, 'Sn': 13}",7.0,0.0,,,10.1103/physrevb.90.020507
Ce Co In 5,{},"{'Ce': 1, 'Co': 1, 'In': 5}",2.3,0.0,,,10.1103/physrevb.66.054410
Ce Ir In 5,{},"{'Ce': 1, 'Ir': 1, 'In': 5}",0.4,0.0,,,10.1103/physrevb.66.054410
Ce Rh In 5,{},"{'Ce': 1, 'Rh': 1, 'In': 5}",2.1,16.0,,,10.1103/physrevb.66.054410
Rb 0.77 Fe 1.61 Se 2,{},"{'Rb': 0.77, 'Fe': 1.61, 'Se': 2}",32.0,0.0,,,10.1063/1.4954780
(Tl Rb) 2 Fe 4 Se 5,{},"{'Tl': 2, 'Rb': 2, 'Fe': 4, 'Se': 5}",32.0,0.0,,,10.1063/1.4954780
Rb 0.77 Fe 1.61 Se 2,{},"{'Rb': 0.77, 'Fe': 1.61, 'Se': 2}",32.0,0.0,single crystal,,10.1063/1.4954780
Rb 0.82 Fe 1.68 Se 2,{},"{'Rb': 0.82, 'Fe': 1.68, 'Se': 2}",32.0,0.0,,,10.1063/1.4954780
Sr Ti O 3,{},"{'Sr': 1, 'Ti': 1, 'O': 3}",50.0,0.0,,,10.1103/physrevb.93.174509
Mg B 2,{},"{'Mg': 1, 'B': 2}",40.0,0.0,,,10.1103/physrevb.81.020501
Y Pt Bi,{},"{'Y': 1, 'Pt': 1, 'Bi': 1}",0.77,0.0,,,10.1103/physrevb.96.094526
Lu Pt Bi,{},"{'Lu': 1, 'Pt': 1, 'Bi': 1}",1.0,0.0,,,10.1103/physrevb.96.094526
Y Ba 2 Cu 3 O 6.67,{},"{'Y': 1, 'Ba': 2, 'Cu': 3, 'O': 6.67}",67.0,0.0,single crystal,,10.1126/science.aac6257
(Nd Ce) 2 O 3,{},"{'Nd': 2, 'Ce': 2, 'O': 3}",3.5,0.0,,,10.1088/0953-2048/27/4/044017
Y Ba 2 Cu 3 O 7,{},"{'Y': 1, 'Ba': 2, 'Cu': 3, 'O': 7}",90.0,0.0,,,10.1103/physrevb.79.184514
Y Ba 2 Cu 3 O 6+x,{'x': [0.33]},"{'Y': 1, 'Ba': 2, 'Cu': 3, 'O': 6.33}",8.0,0.0,,,10.1103/physrevb.79.184514
Y Ba 2 Cu 3 O 6.45,{},"{'Y': 1, 'Ba': 2, 'Cu': 3, 'O': 6.45}",35.0,0.0,,,10.1103/physrevb.79.184514
Cs,{},{'Cs': 1},35.0,7.0,,,10.1103/physrevb.88.054510
K 3 C 60,{},"{'K': 3, 'C': 60}",40.0,0.0,,,10.1103/physrevb.88.054510
Rb 3 C 60,{},"{'Rb': 3, 'C': 60}",40.0,0.0,,,10.1103/physrevb.88.054510
Cs 3 C 60,{},"{'Cs': 3, 'C': 60}",40.0,0.0,,,10.1103/physrevb.88.054510
Fe Te 1-x Se x,{'x': []},,8.5,0.0,,,10.1103/physrevb.99.184505
Ca Si 2,{},"{'Ca': 1, 'Si': 2}",14.0,0.0,,,10.1103/physrevb.68.014512
Mg B 2,{},"{'Mg': 1, 'B': 2}",7.9,0.0,,,10.1103/physrevb.68.014512
Ca Al Si,{},"{'Ca': 1, 'Al': 1, 'Si': 1}",7.9,0.0,,,10.1103/physrevb.68.014512
Mg B 2,{},"{'Mg': 1, 'B': 2}",39.0,0.0,,,10.1103/physrevb.68.014512
Sr Al Si,{},"{'Sr': 1, 'Al': 1, 'Si': 1}",7.9,0.0,,,10.1103/physrevb.68.014512
Ba Al Si,{},"{'Ba': 1, 'Al': 1, 'Si': 1}",7.9,0.0,,,10.1103/physrevb.68.014512
Ca Al Si,{},"{'Ca': 1, 'Al': 1, 'Si': 1}",5.0,0.0,,,10.1103/physrevb.68.014512
Mg B 2,{},"{'Mg': 1, 'B': 2}",39.0,0.0,,,10.1088/0953-2048/15/4/308
(Sr 0.6 Na 0.4) Fe 2 As 2,{},"{'Sr': 0.6, 'Na': 0.4, 'Fe': 2, 'As': 2}",37.0,0.0,,,10.1088/0953-2048/23/5/054009
B C C,{},"{'B': 1, 'C': 2}",1.8,0.0,,,10.1103/physrevmaterials.2.034801
Cs V 3 Sb 5,{},"{'Cs': 1, 'V': 3, 'Sb': 5}",95.0,0.0,,,
K 0.8 Fe 1.76 Se 2,{},"{'K': 0.8, 'Fe': 1.76, 'Se': 2}",30.0,0.0,furnace cooled crystals,,10.1088/0953-2048/24/6/065006
K 0.83 Fe 1.86 Se 2.09,{},"{'K': 0.83, 'Fe': 1.86, 'Se': 2.09}",29.0,0.0,,,10.1088/0953-2048/24/6/065006
Fe Se 0.5 Te 0.5,{},"{'Fe': 1, 'Se': 0.5, 'Te': 0.5}",37.0,0.0,,,10.1088/0953-2048/24/6/065006
Fe Se,{},"{'Fe': 1, 'Se': 1}",8.0,0.0,,,10.1088/0953-2048/24/6/065006
K x Fe 2-y Se 2,"{'x': [], 'y': []}",,30.0,0.0,,,10.1088/0953-2048/24/6/065006
Cs x Fe 2-y Se 2,"{'x': [], 'y': []}",,30.0,0.0,,,10.1088/0953-2048/24/6/065006
Rb x Fe 2-y Se 2,"{'x': [], 'y': []}",,30.0,0.0,,,10.1088/0953-2048/24/6/065006
Tl x Fe 2-y Se 2,"{'x': [], 'y': []}",,30.0,0.0,,,10.1088/0953-2048/24/6/065006
Ba 0.6 K 0.4 Fe 2 As 2,{},"{'Ba': 0.6, 'K': 0.4, 'Fe': 2, 'As': 2}",37.0,0.0,,,10.1103/physrevlett.103.186402
Ba Fe 1.8 Co 0.2 As 2,{},"{'Ba': 1, 'Fe': 1.8, 'Co': 0.2, 'As': 2}",22.5,0.0,,,10.1103/physrevlett.103.186402
Y Ba 2 (Cu 1-x Li x) 3 O 6.97,{'x': []},,79.5,0.0,,,10.1103/physrevb.66.054522
Y Ba 2 (Cu 1-x Li x) 3 O 6.6,{'x': []},,41.0,0.0,,,10.1103/physrevb.66.054522
Sr Fe As F,{},"{'Sr': 1, 'Fe': 1, 'As': 1, 'F': 1}",56.0,0.0,,,10.1209/0295-5075/85/67009
Nd O Bi S 2,{},"{'Nd': 1, 'O': 1, 'Bi': 1, 'S': 2}",5.0,0.0,,,
Ce O 0.5 F 0.5 Bi S 2,{},"{'Ce': 1, 'O': 0.5, 'F': 0.5, 'Bi': 1, 'S': 2}",6.0,2.61,,,
Ce O Bi S 2,{},"{'Ce': 1, 'O': 1, 'Bi': 1, 'S': 2}",8.0,0.0,,,
Li 2 Pd x Pt 3-x B,{'x': [2.25]},"{'Li': 2, 'Pd': 2.25, 'Pt': 0.75, 'B': 1}",30.0,0.0,,,10.1007/s10948-008-0440-y
Sr Ti O 3,{},"{'Sr': 1, 'Ti': 1, 'O': 3}",65.0,0.0,,,10.1088/0953-2048/29/10/104005
Fe Se,{},"{'Fe': 1, 'Se': 1}",65.0,0.0,,,10.1088/0953-2048/29/10/104005
Y Ba 2 Cu 3 O 7-δ,{'δ': []},,90.0,0.0,thin films,,10.1103/physrevapplied.11.044082
Ba Ni 2 As 2,{},"{'Ba': 1, 'Ni': 2, 'As': 2}",0.7,0.0,,,10.1103/physrevlett.104.067002
La Fe P O,{},"{'La': 1, 'Fe': 1, 'P': 1, 'O': 1}",7.0,0.0,,,10.1103/physrevlett.104.067002
H c2,{'c': []},,16.0,0.0,,,10.1103/physrevlett.104.067002
Lu Ni 2 B 2 C,{},"{'Lu': 1, 'Ni': 2, 'B': 2, 'C': 1}",16.0,0.0,,,10.1103/physrevlett.104.067002
Ba (Fe 1-x Ni x) 2 As 2,{'x': []},,20.0,0.0,,,10.1103/physrevlett.104.067002
Tl 2 Ba 2 Cu O 6+δ,{'δ': []},,15.0,0.0,,,10.1103/physrevlett.104.067002
Y Ba 2 Cu 4 O 7,{},"{'Y': 1, 'Ba': 2, 'Cu': 4, 'O': 7}",25.0,0.0,,,10.1143/jpsj.80.024708
Y Ba 2 Cu 4 O 7,{},"{'Y': 1, 'Ba': 2, 'Cu': 4, 'O': 7}",40.0,0.0,,,10.1143/jpsj.80.024708
Mg B 2,{},"{'Mg': 1, 'B': 2}",39.0,0.0,,,10.1140/epjb/e2002-00356-9
U Ru 2 Si 2,{},"{'U': 1, 'Ru': 2, 'Si': 2}",1.45,0.0,,,10.1038/nphys3170
U Ru 2 Si 2,{},"{'U': 1, 'Ru': 2, 'Si': 2}",1.45,0.0,single crystals,,10.1038/nphys3170
U Ru 2 Si 2,{},"{'U': 1, 'Ru': 2, 'Si': 2}",1.5,0.0,,,10.1038/nphys3170
Mg B 2,{},"{'Mg': 1, 'B': 2}",39.0,0.0,,,10.1103/physrevlett.86.5771
Mg B 2,{},"{'Mg': 1, 'B': 2}",40.0,0.0,,,10.1103/physrevlett.86.5771
Al B 2,{},"{'Al': 1, 'B': 2}",9.0,0.0,,,10.1103/physrevlett.86.5771
Lu Ni 2 B 2 C,{},"{'Lu': 1, 'Ni': 2, 'B': 2, 'C': 1}",16.0,0.0,,,10.1103/physrevb.65.064534
Mg B 2,{},"{'Mg': 1, 'B': 2}",39.0,0.0,,,10.1103/physrevb.65.064534
Mg C Ni 3,{},"{'Mg': 1, 'C': 1, 'Ni': 3}",8.0,0.0,,,10.1103/physrevb.65.064534
Bi 2 Sr 2 Ca Cu 2 O 8+δ,{'δ': []},,92.0,0.0,,,10.1016/j.jmmm.2014.03.057
Hg Ba 2 Cu O 6,{},"{'Hg': 1, 'Ba': 2, 'Cu': 1, 'O': 6}",100.0,0.0,,,
Tl Ba 2 Cu O 6,{},"{'Tl': 1, 'Ba': 2, 'Cu': 1, 'O': 6}",50.0,0.0,,,
Tl Ba 1-x La x Cu O 5,{'x': []},,50.0,0.0,,,
Ce Ir Si 3,{},"{'Ce': 1, 'Ir': 1, 'Si': 3}",1.3,0.0,,,10.1103/physrevb.81.104506
Ce Ir Si 3,{},"{'Ce': 1, 'Ir': 1, 'Si': 3}",1.0,0.0,,,10.1103/physrevb.81.104506
Au 2 Pb,{},"{'Au': 2, 'Pb': 1}",1.3,0.0,,,10.1038/npjquantmats.2016.5
Bi 2 Sr 2 Ca Cu 2 O 8,{},"{'Bi': 2, 'Sr': 2, 'Ca': 1, 'Cu': 2, 'O': 8}",89.0,0.0,,,10.1002/chin.200626199
Mo 2.91 Ru 0.09 Sb 7,{},"{'Mo': 2.91, 'Ru': 0.09, 'Sb': 7}",2.05,0.0,,,10.1103/physrevb.92.064507
Mo 2.9 Cr 0.1 Sb 7,{},"{'Mo': 2.9, 'Cr': 0.1, 'Sb': 7}",48.0,0.0,,,10.1103/physrevb.92.064507
Mo 3 Sb 7,{},"{'Mo': 3, 'Sb': 7}",2.35,0.0,,,10.1103/physrevb.92.064507
Mo 3 Sb 7,{},"{'Mo': 3, 'Sb': 7}",1.8,0.0,,,10.1103/physrevb.92.064507
Mo 3 Sb 7,{},"{'Mo': 3, 'Sb': 7}",2.08,0.0,,,10.1103/physrevb.92.064507
Sr 2 Ru O 4,{},"{'Sr': 2, 'Ru': 1, 'O': 4}",1.5,0.0,,,10.7566/jpsj.83.074706
Li 2 Pt 3 B,{},"{'Li': 2, 'Pt': 3, 'B': 1}",2.7,0.0,,,
Y B 12,{},"{'Y': 1, 'B': 12}",4.7,0.0,,,
Ce Co In 5,{},"{'Ce': 1, 'Co': 1, 'In': 5}",2.6,0.0,,,10.1103/physrevlett.109.186402
Sr Ti O 3,{},"{'Sr': 1, 'Ti': 1, 'O': 3}",0.3,0.0,,,10.1103/physrevlett.108.117003
Hg Ba 2 Ca n-1 Cu n O 2n+n+δ,"{'n': [], 'δ': []}",,130.0,0.0,,,10.5488/cmp.14.13702
Hg 0.8 Pb 0.2 Ba 2 Ca 2 Cu 3 O,{},"{'Hg': 0.8, 'Pb': 0.2, 'Ba': 2, 'Ca': 2, 'Cu': 3, 'O': 1}",131.6,0.0,,,10.5488/cmp.14.13702
Sr 2 Ru O 4,{},"{'Sr': 2, 'Ru': 1, 'O': 4}",1.5,0.0,,,10.1016/0304-8853(80)90315-7
Mg B 2,{},"{'Mg': 1, 'B': 2}",39.0,0.0,,,10.1103/physrevb.64.144517
Tl 2 Ba 2 Cu O 6,{},"{'Tl': 2, 'Ba': 2, 'Cu': 1, 'O': 6}",15.0,0.0,,,10.1038/nphys449
Tl 2 Ba 2 Cu O 6,{},"{'Tl': 2, 'Ba': 2, 'Cu': 1, 'O': 6}",15.0,0.0,single crystal,,10.1038/nphys449
V B 2,{},"{'V': 1, 'B': 2}",9.5,0.0,,,10.1103/physrevb.64.140507
Ba Fe 2 S 3,{},"{'Ba': 1, 'Fe': 2, 'S': 3}",24.0,17.0,,,10.1103/physrevb.95.060502
Sr Ti O 3,{},"{'Sr': 1, 'Ti': 1, 'O': 3}",50.0,0.0,,,10.1103/physrevb.88.205130
Fe Se,{},"{'Fe': 1, 'Se': 1}",37.0,9.0,,,10.1103/physrevb.88.205130
Fe Se,{},"{'Fe': 1, 'Se': 1}",8.0,0.0,,,10.1103/physrevb.88.205130
Fe Se,{},"{'Fe': 1, 'Se': 1}",50.0,0.0,monolayer,SrTiO 3,10.1103/physrevb.88.205130
Fe Se,{},"{'Fe': 1, 'Se': 1}",9.0,0.0,,,10.1088/1361-648x/aacd37
Fe Se,{},"{'Fe': 1, 'Se': 1}",100.0,0.0,films,Nb-doped SrTiO 3,10.1088/1361-648x/aacd37
Hg Ba 2 Cu O 6,{},"{'Hg': 1, 'Ba': 2, 'Cu': 1, 'O': 6}",97.0,0.0,single crystal,,
Hg Ba 2 Cu O 6,{},"{'Hg': 1, 'Ba': 2, 'Cu': 1, 'O': 6}",50.0,0.0,,,
Hg Ba 2 Cu O 4+δ,{'δ': []},,98.0,0.0,,,
Hg Ba 2 Ca Cu 2 O 6+δ,{'δ': []},,93.0,0.0,,,
La,{},{'La': 1},38.0,0.0,,,
Hg Ba 2 Cu O 6,{},"{'Hg': 1, 'Ba': 2, 'Cu': 1, 'O': 6}",98.0,0.0,,,
Hg Ba 2 Ca Cu 2 O 6+δ,{'δ': []},,127.0,0.0,,,
Bi 2 Sr 2 Ca Cu 2 O 8,{},"{'Bi': 2, 'Sr': 2, 'Ca': 1, 'Cu': 2, 'O': 8}",96.0,0.0,,,
Y Ba 2 Cu 4 O 8,{},"{'Y': 1, 'Ba': 2, 'Cu': 4, 'O': 8}",82.0,0.0,,,
Cu O 2,{},"{'Cu': 1, 'O': 2}",82.0,0.0,,,
Y Ba 2 Cu 3 O 6.93,{},"{'Y': 1, 'Ba': 2, 'Cu': 3, 'O': 6.93}",93.0,0.0,,,
Cu O 2,{},"{'Cu': 1, 'O': 2}",93.0,0.0,,,
(Pb 0.5 Sn 0.5) 1-x In x Te,{'x': []},,3.8,0.0,single crystal,,
Nb Se 2,{},"{'Nb': 1, 'Se': 2}",7.2,0.0,,,10.1016/j.physc.2003.10.030
La O 0.5 F 0.5 Bi S 2,{},"{'La': 1, 'O': 0.5, 'F': 0.5, 'Bi': 1, 'S': 2}",10.6,0.0,,,10.1103/physrevb.96.024513
Mg B 2,{},"{'Mg': 1, 'B': 2}",39.0,0.0,,,10.1016/s0921-4534(02)02301-8
Pb,{},{'Pb': 1},7.3,0.0,,,
B 2 H 6,{},"{'B': 2, 'H': 6}",147.0,360.0,,,10.1016/j.physc.2012.12.002
Si H 4,{},"{'Si': 1, 'H': 4}",107.0,250.0,,,10.1016/j.physc.2012.12.002
Ca H 6,{},"{'Ca': 1, 'H': 6}",240.0,150.0,,,10.1016/j.physc.2012.12.002
Si 2 H 6,{},"{'Si': 2, 'H': 6}",174.0,275.0,,,10.1016/j.physc.2012.12.002
La Fe As O,{},"{'La': 1, 'Fe': 1, 'As': 1, 'O': 1}",26.0,0.0,,,10.1088/0953-2048/29/5/053001
Ba Fe 2 (As P) 2,{},"{'Ba': 1, 'Fe': 2, 'As': 2, 'P': 2}",31.0,0.0,,,10.1007/978-4-431-54294-0_7
K Fe 2 As 2,{},"{'K': 1, 'Fe': 2, 'As': 2}",4.0,0.0,,,10.1007/978-4-431-54294-0_7
La Fe P O,{},"{'La': 1, 'Fe': 1, 'P': 1, 'O': 1}",6.0,0.0,,,10.1007/978-4-431-54294-0_7
Li Fe P,{},"{'Li': 1, 'Fe': 1, 'P': 1}",17.0,0.0,,,10.1007/978-4-431-54294-0_7
Na x Co O 2,{'x': []},,4.5,0.0,,,10.1143/jpsj.77.063703
Bi 2 Sr 2 Cu O 6+δ,{'δ': []},,24.0,0.0,,,
Bi 2 Sr 2 Cu O 6,{},"{'Bi': 2, 'Sr': 2, 'Cu': 1, 'O': 6}",24.0,0.0,,,
Fe Se,{},"{'Fe': 1, 'Se': 1}",109.0,0.0,,,10.1103/physrevb.94.104523
Fe Se,{},"{'Fe': 1, 'Se': 1}",8.9,0.0,,,10.1007/s11434-016-1087-x
Bi 2 Sr 2 Ca Cu 2 O 8,{},"{'Bi': 2, 'Sr': 2, 'Ca': 1, 'Cu': 2, 'O': 8}",10.0,0.0,,,10.1103/physrevb.77.094515
La 1.85 Sr 0.15 Cu O 4,{},"{'La': 1.85, 'Sr': 0.15, 'Cu': 1, 'O': 4}",6.0,4.0,,,10.1007/978-94-010-0520-3_26
Rb 3 C 60,{},"{'Rb': 3, 'C': 60}",29.5,0.0,,,10.1007/978-94-010-0520-3_26
La 2-x Ba x Cu O 4,{'x': [0.125]},"{'La': 1.875, 'Ba': 0.125, 'Cu': 1, 'O': 4}",37.0,0.0,,,10.1007/978-94-010-0520-3_26
La Ba Cu O,{},"{'La': 1, 'Ba': 1, 'Cu': 1, 'O': 1}",35.0,0.0,,,10.1007/978-94-010-0520-3_26
Mg B 2,{},"{'Mg': 1, 'B': 2}",39.2,0.8,,,10.1007/978-94-010-0520-3_26
C 60,{},{'C': 60},52.0,0.0,,,10.1007/978-94-010-0520-3_26
Rb 3 C 60,{},"{'Rb': 3, 'C': 60}",52.0,0.0,,,10.1007/978-94-010-0520-3_26
Y Ba 2 Cu 3 O 7-δ,{'δ': []},,92.0,0.0,,,10.1007/978-94-010-0520-3_26
Mg B 2,{},"{'Mg': 1, 'B': 2}",37.3,0.0,,,10.1007/978-94-010-0520-3_26
Tl 2 Ba 2 Ca 2 Cu 3 O 10+δ,{'δ': []},,250.0,4.0,,,10.1007/978-94-010-0520-3_26
Pr Os 4 Sb 12,{},"{'Pr': 1, 'Os': 4, 'Sb': 12}",1.85,0.0,,,10.1143/jpsj.76.023701
Pb,{},{'Pb': 1},7.19,0.0,,,10.1063/1.4722945
Mg B 2,{},"{'Mg': 1, 'B': 2}",40.0,0.0,,,10.1088/0034-4885/74/12/124511
Sm Fe As O,{},"{'Sm': 1, 'Fe': 1, 'As': 1, 'O': 1}",55.0,0.0,,,10.1088/0034-4885/74/12/124511
Lu Ni 2 B 2 C,{},"{'Lu': 1, 'Ni': 2, 'B': 2, 'C': 1}",15.5,0.0,,,10.1103/physrevlett.96.027003
Eu 3 Bi 2 S 4 F 4,{},"{'Eu': 3, 'Bi': 2, 'S': 4, 'F': 4}",1.5,0.0,,,10.1021/acs.inorgchem.6b01926
Eu F Bi S 2,{},"{'Eu': 1, 'F': 1, 'Bi': 1, 'S': 2}",0.3,0.0,,,10.1021/acs.inorgchem.6b01926
Bi H 6,{},"{'Bi': 1, 'H': 6}",100.0,200.0,,,10.1016/j.ssc.2018.05.009
H 3 S,{},"{'H': 3, 'S': 1}",203.0,155.0,,,10.1016/j.ssc.2018.05.009
C Bi H 6,{},"{'C': 1, 'Bi': 1, 'H': 6}",103.0,0.0,,,10.1016/j.ssc.2018.05.009
Fe 1+y Te 0.61 Se 0.39,{'y': []},,14.0,0.0,,,10.1088/1361-6668/ab30c2
Fe Se,{},"{'Fe': 1, 'Se': 1}",65.0,0.0,,,10.1088/1361-6668/ab30c2
Fe Se,{},"{'Fe': 1, 'Se': 1}",48.0,0.0,,,10.1088/1361-6668/ab30c2
Li x (N H 2) y (N H 3) 1-y Fe 2 Se 2,"{'x': [], 'y': []}",,40.0,0.0,,,10.1088/1361-6668/ab30c2
Fe Se,{},"{'Fe': 1, 'Se': 1}",9.0,0.0,,,10.1088/1361-6668/ab30c2