Material,Substitutions,Composition,Tc (K),Pressure (GPa),Shape,Substrate,DOI
K y Fe 2-x Se 2,"{'x': [], 'y': []}",,30.0,0.0,,,10.1103/physrevb.83.144410
Cs y Fe 2-x Se 2,"{'x': [], 'y': []}",,30.0,0.0,,,10.1103/physrevb.83.144410
Rb y Fe 2-x Se 2,"{'x': [], 'y': []}",,30.0,0.0,,,10.1103/physrevb.83.144410
Ba 0.68 K 0.32 Fe 2 As 2,{},"{'Ba': 0.68, 'K': 0.32, 'Fe': 2, 'As': 2}",38.5,0.0,,,10.1103/physrevb.86.180501
Ba 0.77 K 0.23 Fe 2 As 2,{},"{'Ba': 0.77, 'K': 0.23, 'Fe': 2, 'As': 2}",16.5,0.0,single-crystal,,10.1103/physrevb.86.180501
(Ca La) Fe As 2,{},"{'Ca': 1, 'La': 1, 'Fe': 1, 'As': 2}",40.0,0.0,,,10.1088/0256-307x/30/12/127402
(Ca Pr) Fe As 2,{},"{'Ca': 1, 'Pr': 1, 'Fe': 1, 'As': 2}",40.0,0.0,,,10.1088/0256-307x/30/12/127402
(Ca La) Fe As 2,{},"{'Ca': 1, 'La': 1, 'Fe': 1, 'As': 2}",43.0,0.0,,,10.1088/0256-307x/30/12/127402
(Ca Pr) Fe As 2,{},"{'Ca': 1, 'Pr': 1, 'Fe': 1, 'As': 2}",43.0,0.0,,,10.1088/0256-307x/30/12/127402
Nb Se 2,{},"{'Nb': 1, 'Se': 2}",6.1,0.0,,,
Nb Se 2,{},"{'Nb': 1, 'Se': 2}",33.0,0.0,,,
Nb Se 2,{},"{'Nb': 1, 'Se': 2}",5.93,0.0,,,
Y Sr 2 Cu 3 O 7,{},"{'Y': 1, 'Sr': 2, 'Cu': 3, 'O': 7}",60.0,7.0,,,10.1016/s0921-4534(03)00637-3
Ru Sr 2 Gd Cu 2 O 8,{},"{'Ru': 1, 'Sr': 2, 'Gd': 1, 'Cu': 2, 'O': 8}",6.0,0.0,,,10.1016/s0921-4534(03)00637-3
Sr C 6,{},"{'Sr': 1, 'C': 6}",5.16,0.0,,,10.1103/physrevb.74.094507
Ca C 6,{},"{'Ca': 1, 'C': 6}",11.5,0.0,,,10.1103/physrevb.74.094507
Ca C 6,{},"{'Ca': 1, 'C': 6}",15.1,8.0,,,10.1103/physrevb.74.094507
Yb C 6,{},"{'Yb': 1, 'C': 6}",7.0,2.0,,,10.1103/physrevb.74.094507
Ba C 6,{},"{'Ba': 1, 'C': 6}",0.81,8.0,,,10.1103/physrevb.74.094507
Yb C 6,{},"{'Yb': 1, 'C': 6}",6.5,0.0,,,10.1103/physrevb.74.094507
Ba C 6,{},"{'Ba': 1, 'C': 6}",0.23,0.0,,,10.1103/physrevb.74.094507
Sr C 6,{},"{'Sr': 1, 'C': 6}",3.02,0.0,,,10.1103/physrevb.74.094507
Ti N Cl,{},"{'Ti': 1, 'N': 1, 'Cl': 1}",16.0,0.0,,,10.1103/physrevb.83.014509
Sm S I,{},"{'Sm': 1, 'S': 1, 'I': 1}",15.0,0.0,,,10.1103/physrevb.83.014509
Sr Ti O 3,{},"{'Sr': 1, 'Ti': 1, 'O': 3}",100.0,0.0,,,
La O 0.5 F 0.5 Bi S 2,{},"{'La': 1, 'O': 0.5, 'F': 0.5, 'Bi': 1, 'S': 2}",3.0,0.0,,,10.1103/physrevb.96.214505
La 0.8 Ti 0.2 O Bi S 2,{},"{'La': 0.8, 'Ti': 0.2, 'O': 1, 'Bi': 1, 'S': 2}",3.5,0.0,,,10.1103/physrevb.96.214505
La 2-x Sr x Cu O 4,{'x': []},,40.0,0.0,,,10.1209/0295-5075/81/37008
Fe Se,{},"{'Fe': 1, 'Se': 1}",40.0,9.0,,,
Fe Se,{},"{'Fe': 1, 'Se': 1}",8.0,0.0,,,10.1103/physrevb.83.100514
C H Br 3,{},"{'C': 1, 'H': 1, 'Br': 3}",117.0,0.0,,,10.1016/s0921-4534(02)01416-8
Cs 3 C 60,{},"{'Cs': 3, 'C': 60}",40.0,0.0,,,10.1016/s0921-4534(02)01416-8
Rb 3 C 60,{},"{'Rb': 3, 'C': 60}",30.0,0.0,,,10.1016/s0921-4534(02)01416-8
Bi 2 Sr 2 Ca Cu 2 O 8+δ,{'δ': []},,95.0,0.0,,,10.1103/physrevlett.104.026401
Lu 2 Fe 3 Si 5,{},"{'Lu': 2, 'Fe': 3, 'Si': 5}",10.0,0.0,,,10.1103/physrevb.84.054541
Lu 2 Fe 3 Si 5,{},"{'Lu': 2, 'Fe': 3, 'Si': 5}",3.0,0.0,,,10.1103/physrevb.84.054541
Lu 2 Fe 3 Si 5,{},"{'Lu': 2, 'Fe': 3, 'Si': 5}",5.0,0.0,,,10.1103/physrevb.84.054541
Nb,{},{'Nb': 1},9.2,0.0,,,10.1134/s0021364006170073
Au,{},{'Au': 1},9.2,0.0,,,10.1134/s0021364006170073
Cs V 3 Sb 5,{},"{'Cs': 1, 'V': 3, 'Sb': 5}",3.34,0.0,,,
La 1.85 Sr 0.15 Cu 1-x Ni x O 4,{'x': [0.03]},"{'La': 1.85, 'Sr': 0.15, 'Cu': 0.97, 'Ni': 0.03, 'O': 4}",22.0,0.0,,,
La 1.85 Sr 0.15 Cu O 4,{},"{'La': 1.85, 'Sr': 0.15, 'Cu': 1, 'O': 4}",37.7,0.0,,,
Fe Se,{},"{'Fe': 1, 'Se': 1}",8.0,0.0,orthorhombic,,
Mg B 2,{},"{'Mg': 1, 'B': 2}",0.5,0.0,,,10.1016/s0921-4534(02)01139-5
Mg B 2,{},"{'Mg': 1, 'B': 2}",39.4,0.0,,,10.1016/s0921-4534(02)01139-5
Mg B 2,{},"{'Mg': 1, 'B': 2}",1.5,0.0,,,10.1016/s0921-4534(02)01139-5
Mg Al B 4,{},"{'Mg': 1, 'Al': 1, 'B': 4}",12.0,0.0,,,10.1016/s0921-4534(02)01139-5
Mg B 2,{},"{'Mg': 1, 'B': 2}",39.0,0.0,,,10.1016/s0921-4534(02)01139-5
Fe Se,{},"{'Fe': 1, 'Se': 1}",8.0,0.0,,,10.1103/physrevb.80.174509
S ample S C 2,"{'p': [], 'e': [], 'm': [], 'a': [], 'l': []}",,5.1,0.0,,,10.1103/physrevb.80.174509
U Ru 2 Si 2,{},"{'U': 1, 'Ru': 2, 'Si': 2}",1.5,0.0,,,10.7566/jpsj.85.022001
Mg B 2,{},"{'Mg': 1, 'B': 2}",40.0,0.0,,,10.1103/physrevb.71.144505
Y Ba 2 Cu 3 O 7-x,{'x': [0.4]},"{'Y': 1, 'Ba': 2, 'Cu': 3, 'O': 6.6}",62.7,0.0,crystal,,10.1103/physrevlett.77.5425
O 7-x,{'x': [0.4]},{'O': 6.6},62.7,0.0,single crystal,,10.1103/physrevlett.77.5425
O 6.6,{},{'O': 6.6},62.7,0.0,,,10.1103/physrevlett.77.5425
O 6.6,{},{'O': 6.6},7.0,0.0,,,10.1103/physrevlett.77.5425
La 2 C 3,{},"{'La': 2, 'C': 3}",11.0,0.0,,,10.1103/physrevb.70.052504
Y 2 C 3,{},"{'Y': 2, 'C': 3}",10.5,0.0,,,10.1103/physrevb.70.052504
Y 2 C 3,{},"{'Y': 2, 'C': 3}",18.0,5.5,,,10.1103/physrevb.70.052504
Y 2 C 3,{},"{'Y': 2, 'C': 3}",17.0,0.0,,,10.1103/physrevb.70.052504
Mg B 2,{},"{'Mg': 1, 'B': 2}",38.0,0.0,films,,10.1063/1.1377323
Mg B 2,{},"{'Mg': 1, 'B': 2}",38.6,0.0,films,,10.1063/1.1377323
Mg B 2,{},"{'Mg': 1, 'B': 2}",32.5,0.0,film,,10.1063/1.1377323
Mg 10 B 2,{},"{'Mg': 10, 'B': 2}",40.2,0.0,,,10.1063/1.1377323
Al 2 O 3,{},"{'Al': 2, 'O': 3}",38.6,0.0,"single crystal, films",,10.1063/1.1377323
Mg B 2,{},"{'Mg': 1, 'B': 2}",39.0,0.0,,,10.1063/1.1377323
La Fe P O,{},"{'La': 1, 'Fe': 1, 'P': 1, 'O': 1}",6.0,0.0,,,10.1146/annurev-conmatphys-031113-133921
Mo N,{},"{'Mo': 1, 'N': 1}",7.8,0.0,film,,
Mg B 2,{},"{'Mg': 1, 'B': 2}",39.0,0.0,,,10.1038/35079018
Mg C Ni 3-x Ru x,{'x': []},,10.0,0.0,,,10.1103/physrevb.70.094511
Ni,{},{'Ni': 1},2.0,0.0,,,10.1103/physrevb.70.094511
Mg C Ni 3,{},"{'Mg': 1, 'C': 1, 'Ni': 3}",7.0,0.0,,,10.1103/physrevb.70.094511
Mg B 2,{},"{'Mg': 1, 'B': 2}",39.0,0.0,,,10.1038/s41598-017-09248-4
Nb N,{},"{'Nb': 1, 'N': 1}",12.65,0.0,film,,
Nb N,{},"{'Nb': 1, 'N': 1}",13.6,0.0,film,,
Nb 3 N 5,{},"{'Nb': 3, 'N': 5}",0.5,0.0,film,,
La Ni C 2,{},"{'La': 1, 'Ni': 1, 'C': 2}",2.7,0.0,,,10.1103/physrevb.80.092506
La Ni C 2,{},"{'La': 1, 'Ni': 1, 'C': 2}",3.0,0.0,,,10.1103/physrevb.80.092506
Ba Fe 2-x Co x As 2,{'x': [0.148]},"{'Ba': 1, 'Fe': 1.852, 'Co': 0.148, 'As': 2}",25.0,0.0,single crystals,,
Ca Mn O 3,{},"{'Ca': 1, 'Mn': 1, 'O': 3}",120.0,0.0,,,10.1007/s100510170123
Nb Ti and Nb 3 Sn,"{'n': [], 'a': [], 'd': []}",,9.5,0.0,,,
K x Fe 2 Se 2,{'x': []},,30.0,0.0,,,
Fe Se based (Li Fe) O H Fe Se,"{'b': [], 'e': [], 'a': [], 's': [], 'd': []}",,40.0,0.0,,,
Sn,{},{'Sn': 1},3.7,0.0,,,10.1038/ncomms13617
Sr 3 Sn O,{},"{'Sr': 3, 'Sn': 1, 'O': 1}",5.0,0.0,,,10.1038/ncomms13617
Ba 0.6 K 0.4 Bi O 3,{},"{'Ba': 0.6, 'K': 0.4, 'Bi': 1, 'O': 3}",30.0,0.0,,,10.1038/ncomms13617
La 3 In,{},"{'La': 3, 'In': 1}",10.0,0.0,,,10.1038/ncomms13617
Mg C Ni 3,{},"{'Mg': 1, 'C': 1, 'Ni': 3}",8.0,0.0,,,10.1038/ncomms13617
Ba (Fe 0.9 Co 0.1) 2 As 2,{},"{'Ba': 1, 'Fe': 1.8, 'Co': 0.2, 'As': 2}",24.5,0.0,single crystals,,10.1088/0034-4885/74/12/124509
Ba 0.55 K 0.45 Fe 2 As 2,{},"{'Ba': 0.55, 'K': 0.45, 'Fe': 2, 'As': 2}",30.0,0.0,single crystals,,10.1088/0034-4885/74/12/124509
Ca (Fe 1-x Co x) 2 As 2,{'x': []},,18.0,0.0,single crystals,,10.1088/0034-4885/74/12/124509
Sm Fe As O 0.8 F 0.2,{},"{'Sm': 1, 'Fe': 1, 'As': 1, 'O': 0.8, 'F': 0.2}",52.0,0.0,polycrystal,,10.1088/0034-4885/74/12/124509
Sr 3,{},{'Sr': 3},17.0,0.0,polycrystals,,10.1088/0034-4885/74/12/124509
La Fe As O 1-x F x,{'x': []},,28.0,0.0,films,,10.1088/0034-4885/74/12/124509
Ba 0.6 K 0.4 Fe 2 As 2,{},"{'Ba': 0.6, 'K': 0.4, 'Fe': 2, 'As': 2}",37.0,0.0,crystals,,10.1088/0034-4885/74/12/124509
(Sr 0.6 Na 0.4) Fe 2 As 2,{},"{'Sr': 0.6, 'Na': 0.4, 'Fe': 2, 'As': 2}",36.0,0.0,,,10.1088/0034-4885/74/12/124509
Sr (Fe 0.9 Co 0.1) 2 As 2,{},"{'Sr': 1, 'Fe': 1.8, 'Co': 0.2, 'As': 2}",22.0,0.0,,,10.1088/0034-4885/74/12/124509
Ba (Fe 0.93 Co 0.07) 2 As 2,{},"{'Ba': 1, 'Fe': 1.86, 'Co': 0.14, 'As': 2}",23.0,0.0,single crystals,,10.1088/0034-4885/74/12/124509
Zr B 12,{},"{'Zr': 1, 'B': 12}",5.95,0.0,single crystal,,10.1088/1367-2630/aa8246
Y Ba 2 Cu 3 O 7-x,{'x': []},,60.0,0.0,,,10.1103/physrevb.77.214514
Ce Pt 3 Si,{},"{'Ce': 1, 'Pt': 3, 'Si': 1}",0.75,0.0,,,10.7566/jpsj.82.053703
Sr Pt 3 P,{},"{'Sr': 1, 'Pt': 3, 'P': 1}",8.4,0.0,,,10.7566/jpsj.82.053703
Ca Pt 3 P,{},"{'Ca': 1, 'Pt': 3, 'P': 1}",8.4,0.0,,,10.7566/jpsj.82.053703
La Pt 3 P,{},"{'La': 1, 'Pt': 3, 'P': 1}",8.4,0.0,,,10.7566/jpsj.82.053703
Mg Ni 3 C,{},"{'Mg': 1, 'Ni': 3, 'C': 1}",8.0,0.0,,,10.7566/jpsj.82.053703
Ru Sr 2 Gd Cu 2 O 8,{},"{'Ru': 1, 'Sr': 2, 'Gd': 1, 'Cu': 2, 'O': 8}",45.0,0.0,,,
K x Fe 2 Se 2,{'x': []},,30.0,0.0,,,10.7566/jpsj.82.123705
Fe Se,{},"{'Fe': 1, 'Se': 1}",8.0,0.0,,,10.7566/jpsj.82.123705
Fe Se,{},"{'Fe': 1, 'Se': 1}",41.0,0.0,,,10.7566/jpsj.82.123705
Li x (C 2 H 8 N 2) y Fe 2-z Se 2,"{'z': [], 'x': [], 'y': []}",,45.0,0.0,,,10.7566/jpsj.82.123705
K Mn O 4,{},"{'K': 1, 'Mn': 1, 'O': 4}",4.6,0.0,,,10.1016/j.applthermaleng.2016.10.146
Na 0.7 Co O 2,{},"{'Na': 0.7, 'Co': 1, 'O': 2}",5.0,0.0,,,10.1016/j.applthermaleng.2016.10.146
Ce Rh In 5,{},"{'Ce': 1, 'Rh': 1, 'In': 5}",2.0,0.0,,,10.1016/s0921-4526(01)01281-9
Ce Rh 1-x Ir x In 5,{'x': [1.0]},"{'Ce': 1, 'Ir': 1.0, 'In': 5}",1.0,0.0,,,10.1016/s0921-4526(01)01281-9
Ce Co In 5,{},"{'Ce': 1, 'Co': 1, 'In': 5}",2.3,0.0,,,10.1016/s0921-4526(01)01281-9
Ce Ir In 5,{},"{'Ce': 1, 'Ir': 1, 'In': 5}",0.4,0.0,,,10.1016/s0921-4526(01)01281-9
Sm Fe As,{},"{'Sm': 1, 'Fe': 1, 'As': 1}",55.0,0.0,,,10.1103/physrevb.79.180502
Ba Ir 2 P 2,{},"{'Ba': 1, 'Ir': 2, 'P': 2}",2.1,0.0,single crystals,,10.1103/physrevb.79.180502
La Ru 2 P 2,{},"{'La': 1, 'Ru': 2, 'P': 2}",4.1,0.0,,,10.1103/physrevb.79.180502
Ba Rh 2 P 2,{},"{'Ba': 1, 'Rh': 2, 'P': 2}",1.0,0.0,,,10.1103/physrevb.79.180502
Ba Ir 2 P 2,{},"{'Ba': 1, 'Ir': 2, 'P': 2}",2.1,0.0,,,10.1103/physrevb.79.180502
Ba Rh 2 As 2,{},"{'Ba': 1, 'Rh': 2, 'As': 2}",1.8,0.0,,,10.1103/physrevb.79.180502
La Fe As O 0.94 F 0.06,{},"{'La': 1, 'Fe': 1, 'As': 1, 'O': 0.94, 'F': 0.06}",18.0,0.0,,,10.1088/1367-2630/11/3/035006
Ba 1-x K x Fe 2 As 2,{'x': [0.1]},"{'Ba': 0.9, 'K': 0.1, 'Fe': 2, 'As': 2}",2.0,0.0,,,10.1088/1367-2630/11/3/035006
La Fe As O 1-x F x,{'x': [0.2]},"{'La': 1, 'Fe': 1, 'As': 1, 'O': 0.8, 'F': 0.2}",26.0,0.0,,,10.1088/1367-2630/11/3/035006
Mg B 2,{},"{'Mg': 1, 'B': 2}",39.2,0.0,films,,10.1063/1.1418026
Ce Co In 5,{},"{'Ce': 1, 'Co': 1, 'In': 5}",2.3,0.0,,,10.1103/physrevlett.114.027002
Mg Ir B 4,{},"{'Mg': 1, 'Ir': 1, 'B': 4}",0.7,0.0,,,10.1103/physrevb.82.052501
Bi 1-x Sb x,{'x': []},,36.0,0.0,,,10.1016/j.physc.2018.05.018
Bi,{},{'Bi': 1},0.3,0.0,,,10.1016/j.physc.2018.05.018
Bi,{},{'Bi': 1},0.5,0.0,crystal,,10.1016/j.physc.2018.05.018
Sr Ti O 3,{},"{'Sr': 1, 'Ti': 1, 'O': 3}",100.0,0.0,,,10.1016/j.physc.2018.05.018
Y Ba 2 Cu 3 O 7,{},"{'Y': 1, 'Ba': 2, 'Cu': 3, 'O': 7}",88.7,0.0,crystal,,10.1142/9789813271142_0014
La 2-x Sr x Cu O 4,{'x': []},,37.0,0.0,,,10.1142/9789813271142_0014
Bi 2 Sr 2 Ca Cu 2 O 8+y,{'y': []},,87.0,0.0,crys- tals,,10.1142/9789813271142_0014
Nb N,{},"{'Nb': 1, 'N': 1}",12.0,0.0,film,,10.1088/0953-2048/22/4/045004
Pr Pt 2 B 2 C,{},"{'Pr': 1, 'Pt': 2, 'B': 2, 'C': 1}",6.0,0.0,,,10.1002/pssa.201026513
La Fe As O,{},"{'La': 1, 'Fe': 1, 'As': 1, 'O': 1}",21.0,120.0,,,10.1103/physrevb.86.054111
Ba Fe 2 As 2,{},"{'Ba': 1, 'Fe': 2, 'As': 2}",29.0,40.0,,,10.1103/physrevb.86.054111
Gd 2 Cu O 4,{},"{'Gd': 2, 'Cu': 1, 'O': 4}",19.0,0.0,films,STO,10.1016/j.physc.2009.05.105
Nd 2 Cu O 4,{},"{'Nd': 2, 'Cu': 1, 'O': 4}",33.0,0.0,,,10.1016/j.physc.2009.05.105
C S Re 3 W,{},"{'C': 1, 'S': 1, 'Re': 3, 'W': 1}",9.4,0.0,,,10.1103/physrevb.84.184529
C S Re 3 W,{},"{'C': 1, 'S': 1, 'Re': 3, 'W': 1}",7.85,0.0,,,10.1103/physrevb.84.184529
N C S Re 3 W,{},"{'N': 1, 'C': 1, 'S': 1, 'Re': 3, 'W': 1}",7.8,0.0,,,10.1103/physrevb.84.184529
Nb 1-x Sn x,{'x': []},,7.0,0.0,,,10.1103/physrevb.70.184526
Nb 3 Sn,{},"{'Nb': 3, 'Sn': 1}",10.0,0.0,,,10.1103/physrevb.70.184526
Mg B 2,{},"{'Mg': 1, 'B': 2}",39.0,0.0,,,10.1103/physrevb.70.184526
B N 40,{},"{'B': 1, 'N': 40}",35.1,0.0,,,10.1103/physrevlett.121.127001
Nb Se 2,{},"{'Nb': 1, 'Se': 2}",7.2,0.0,,,10.1021/acs.nanolett.7b05050
Bi 2 Sr 2 Ca Cu 2 O 8+δ,{'δ': []},,32.0,0.0,,,10.1103/physrevlett.98.167003
La 2-x Ba x Cu O 4,{'x': []},,2.5,0.0,,,10.1103/physrevlett.98.167003
Mg C Ni 3,{},"{'Mg': 1, 'C': 1, 'Ni': 3}",8.0,0.0,,,10.1007/bf02877440
Mg B 2,{},"{'Mg': 1, 'B': 2}",8.0,0.0,,,10.1007/bf02877440
Mg B 2,{},"{'Mg': 1, 'B': 2}",40.0,0.0,,,10.1007/bf02877440
Nd Ni O 2,{},"{'Nd': 1, 'Ni': 1, 'O': 2}",15.0,0.0,,,10.1103/physrevb.101.020501
K 0.8 Fe 2 Se 2,{},"{'K': 0.8, 'Fe': 2, 'Se': 2}",31.0,0.0,,,10.1103/physrevb.90.014510
Nb N,{},"{'Nb': 1, 'N': 1}",9.2,0.0,,,10.1103/physrevb.98.104501
Tl Ba Ca Cu O,{},"{'Tl': 1, 'Ba': 1, 'Ca': 1, 'Cu': 1, 'O': 1}",125.0,0.0,,,10.1016/s0370-1573(00)00114-9
Y Ba 2 Cu 3 O 6+δ,{'δ': []},,90.0,0.0,,,10.1016/s0370-1573(00)00114-9
La 2-x Sr x Cu O 4,{'x': []},,40.0,0.0,,,10.1016/s0370-1573(00)00114-9
Bi 2 Sr 2 Ca Cu 2 O 8+δ,{'δ': []},,71.0,0.0,,,10.1016/s0370-1573(00)00114-9
Bi Sr Ca Cu O,{},"{'Bi': 1, 'Sr': 1, 'Ca': 1, 'Cu': 1, 'O': 1}",100.0,0.0,,,10.1016/s0370-1573(00)00114-9
Y Ba Cu O,{},"{'Y': 1, 'Ba': 1, 'Cu': 1, 'O': 1}",93.0,0.0,,,10.1016/s0370-1573(00)00114-9
Ba Fe 2 (As 0.68 P 0.32) 2,{},"{'Ba': 1, 'Fe': 2, 'As': 1.36, 'P': 0.64}",27.6,0.0,single crystal,,10.1088/0953-2048/28/5/055017
La Fe 2 As 2,{},"{'La': 1, 'Fe': 2, 'As': 2}",12.1,0.0,,,10.1103/physrevlett.123.267001
Au,{},{'Au': 1},26.0,0.0,,,10.1103/physrevlett.103.197003
Gd 2 Cu O 4,{},"{'Gd': 2, 'Cu': 1, 'O': 4}",20.0,0.0,,,10.1016/j.physc.2008.05.019
La Fe As O,{},"{'La': 1, 'Fe': 1, 'As': 1, 'O': 1}",21.0,12.0,,,
La 1.875 Ba 0.125 Cu O 4,{},"{'La': 1.875, 'Ba': 0.125, 'Cu': 1, 'O': 4}",6.0,0.0,,,10.1103/physrevb.82.174505
La Fe As O,{},"{'La': 1, 'Fe': 1, 'As': 1, 'O': 1}",56.0,0.0,,,10.1016/j.jallcom.2016.06.148
Rb Ca 2 Fe 4 As 4 F 2,{},"{'Rb': 1, 'Ca': 2, 'Fe': 4, 'As': 4, 'F': 2}",30.5,0.0,,,10.1007/s40843-016-5150-x
Rb Ca 2 Fe 4 As 4 F 2,{},"{'Rb': 1, 'Ca': 2, 'Fe': 4, 'As': 4, 'F': 2}",30.0,0.0,,,10.1007/s40843-016-5150-x
Cs Ca 2 Fe 4 As 4 F 2,{},"{'Cs': 1, 'Ca': 2, 'Fe': 4, 'As': 4, 'F': 2}",30.0,0.0,,,10.1007/s40843-016-5150-x
Cs Ca 2 Fe 4 As 4 F 2,{},"{'Cs': 1, 'Ca': 2, 'Fe': 4, 'As': 4, 'F': 2}",28.2,0.0,,,10.1007/s40843-016-5150-x
K Ca 2 Fe 4 As 4 F 2,{},"{'K': 1, 'Ca': 2, 'Fe': 4, 'As': 4, 'F': 2}",28.5,0.0,,,10.1007/s40843-016-5150-x
Mg 10 B 2,{},"{'Mg': 10, 'B': 2}",1.0,0.0,,,10.1143/jpsj.70.1476
K 0.8 Fe 2-x Se 2,{'x': []},,30.0,0.0,,,
Sr Ti O 3,{},"{'Sr': 1, 'Ti': 1, 'O': 3}",65.0,0.0,,,10.1038/ncomms3877
Ca Fe 2 As 2,{},"{'Ca': 1, 'Fe': 2, 'As': 2}",10.0,0.0,,,10.1038/ncomms3877
Fe Se,{},"{'Fe': 1, 'Se': 1}",65.0,0.0,,,10.1038/ncomms3877
Fe S C,{},"{'Fe': 1, 'S': 1, 'C': 1}",50.0,0.0,,,10.1038/ncomms3877
Fe Se,{},"{'Fe': 1, 'Se': 1}",8.0,0.0,,,10.1038/ncomms3877
Mg B 2,{},"{'Mg': 1, 'B': 2}",38.1,0.0,,,10.1088/0953-2048/16/2/318
K Cr 3 As 3,{},"{'K': 1, 'Cr': 3, 'As': 3}",5.0,0.0,,,10.1209/0295-5075/120/27006
Rb 2 Cr 3 As 3,{},"{'Rb': 2, 'Cr': 3, 'As': 3}",7.3,0.0,,,10.1209/0295-5075/120/27006
Rb Cr 3 As 3,{},"{'Rb': 1, 'Cr': 3, 'As': 3}",7.3,0.0,single crystals,,10.1209/0295-5075/120/27006
Rb Cr 3 As 3,{},"{'Rb': 1, 'Cr': 3, 'As': 3}",7.3,0.0,single crystal,,10.1209/0295-5075/120/27006
La Fe P O,{},"{'La': 1, 'Fe': 1, 'P': 1, 'O': 1}",4.0,0.0,,,10.1103/physrevmaterials.3.103401
Sm Fe As O,{},"{'Sm': 1, 'Fe': 1, 'As': 1, 'O': 1}",48.0,0.0,"epitaxial films, single-crystalline",MgO,10.1103/physrevmaterials.3.103401
La Fe As O,{},"{'La': 1, 'Fe': 1, 'As': 1, 'O': 1}",26.0,0.0,,,10.1103/physrevmaterials.3.103401
Sm Fe As O,{},"{'Sm': 1, 'Fe': 1, 'As': 1, 'O': 1}",48.0,0.0,epitaxial films,,10.1103/physrevmaterials.3.103401
Sm Fe As O,{},"{'Sm': 1, 'Fe': 1, 'As': 1, 'O': 1}",48.0,0.0,"epitaxial films, single-crystal",MgO,10.1103/physrevmaterials.3.103401
Zr Zn 2,{},"{'Zr': 1, 'Zn': 2}",28.5,0.0,,,10.1088/0953-8984/17/4/012
Zr Zn 2,{},"{'Zr': 1, 'Zn': 2}",0.29,0.0,,,10.1088/0953-8984/17/4/012
U Ge 2,{},"{'U': 1, 'Ge': 2}",52.0,0.0,,,10.1088/0953-8984/17/4/012
U Rh Ge,{},"{'U': 1, 'Rh': 1, 'Ge': 1}",0.25,0.0,,,10.1088/0953-8984/17/4/012
In 2 H Nb S 2,{},"{'In': 2, 'H': 1, 'Nb': 1, 'S': 2}",6.0,0.0,,,10.1103/physrevlett.101.166407