Material,Substitutions,Composition,Tc (K),Pressure (GPa),Shape,Substrate,DOI
Sr Fe As,{},"{'Sr': 1, 'Fe': 1, 'As': 1}",27.0,0.0,,,10.1016/j.physb.2010.04.039
Ba Fe As,{},"{'Ba': 1, 'Fe': 1, 'As': 1}",27.0,0.0,,,10.1016/j.physb.2010.04.039
Tl 2 Ba 2 Cu O 6+δ,{'δ': []},,24.0,0.0,crystals,,10.1016/j.physc.2007.04.014
Tl 2 Ba 2 Cu O 6+δ,{'δ': []},,5.0,0.0,single crystals,,10.1016/j.physc.2007.04.014
Os N 2,{},"{'Os': 1, 'N': 2}",1.0,0.0,,,10.1103/physrevb.77.092504
Os N 2,{},"{'Os': 1, 'N': 2}",4.0,0.0,,,10.1103/physrevb.77.092504
La Pt Si,{},"{'La': 1, 'Pt': 1, 'Si': 1}",1.2,0.0,,,10.1103/physrevb.90.104504
La Pt Si,{},"{'La': 1, 'Pt': 1, 'Si': 1}",1.25,0.0,,,10.1103/physrevb.90.104504
La Ni Si,{},"{'La': 1, 'Ni': 1, 'Si': 1}",3.45,0.0,,,10.1103/physrevb.90.104504
La Ni Si,{},"{'La': 1, 'Ni': 1, 'Si': 1}",0.1,0.0,,,10.1103/physrevb.90.104504
La Pt Si,{},"{'La': 1, 'Pt': 1, 'Si': 1}",3.45,0.0,,,10.1103/physrevb.90.104504
La Ni Si,{},"{'La': 1, 'Ni': 1, 'Si': 1}",1.25,0.0,,,10.1103/physrevb.90.104504
Ce Co In 5,{},"{'Ce': 1, 'Co': 1, 'In': 5}",2.3,0.0,,,10.1103/physrevb.96.174512
Ce Co In 5,{},"{'Ce': 1, 'Co': 1, 'In': 5}",2.0,0.0,thin film,,10.1103/physrevb.96.174512
Li Fe As,{},"{'Li': 1, 'Fe': 1, 'As': 1}",17.0,0.0,,,10.1088/1367-2630/15/7/073029
Li Fe As,{},"{'Li': 1, 'Fe': 1, 'As': 1}",17.6,0.0,,,10.1088/1367-2630/15/7/073029
Fe Te 0.55 Se 0.45,{},"{'Fe': 1, 'Te': 0.55, 'Se': 0.45}",14.0,0.0,,,10.1088/1367-2630/15/7/073029
Li Fe As,{},"{'Li': 1, 'Fe': 1, 'As': 1}",17.6,0.0,single crystal,,10.1088/1367-2630/15/7/073029
Tl 2 Ba 2 Ca 2 Cu 3 O 6+x,{'x': []},,81.0,0.0,,,
Bi 1.6 Pb 0.6 Sr 1.8 Ca Cu 2 O y,{'y': []},,65.0,0.0,,,
Fe Se,{},"{'Fe': 1, 'Se': 1}",9.0,0.0,,,10.1088/2053-1583/3/2/024002
La 1.9 Sr 0.1 Cu O 4,{},"{'La': 1.9, 'Sr': 0.1, 'Cu': 1, 'O': 4}",25.0,0.0,bulk,,10.1002/andp.201900177
Sr 2 Ru O 4,{},"{'Sr': 2, 'Ru': 1, 'O': 4}",1.5,0.0,,,10.1143/jpsj.71.1993
Fe Se,{},"{'Fe': 1, 'Se': 1}",65.0,0.0,,,10.1103/physrevb.99.054517
Bi,{},{'Bi': 1},4.1,0.0,,,10.1007/s10909-012-0768-3
Mg B 2,{},"{'Mg': 1, 'B': 2}",39.0,0.0,,,10.1142/s021797920201141x
Mg 10 B 2,{},"{'Mg': 10, 'B': 2}",1.0,0.0,,,10.1142/s021797920201141x
La Fe As O,{},"{'La': 1, 'Fe': 1, 'As': 1, 'O': 1}",50.0,0.0,,,10.1016/j.jpcs.2010.10.011
Hg Ba 2 Cu O 4+δ,{'δ': []},,90.0,0.0,,,10.1016/j.jpcs.2010.10.011
La Fe P O,{},"{'La': 1, 'Fe': 1, 'P': 1, 'O': 1}",5.0,0.0,,,10.1016/j.jpcs.2010.10.011
La 2-x,{'x': []},,40.0,0.0,,,10.1016/j.jpcs.2010.10.011
P Cs,{},"{'P': 1, 'Cs': 1}",10.0,0.0,,,10.1103/physrevb.84.094516
K Cr 3 As 3,{},"{'K': 1, 'Cr': 3, 'As': 3}",4.8,0.0,,,10.1103/physrevb.98.014104
Tl Fe 3 Te 3,{},"{'Tl': 1, 'Fe': 3, 'Te': 3}",6.1,0.0,,,10.1103/physrevb.98.014104
In 2 Mo 6 Se 6,{},"{'In': 2, 'Mo': 6, 'Se': 6}",2.85,0.0,,,10.1103/physrevb.98.014104
Tl 2 Mo 6 Se 6,{},"{'Tl': 2, 'Mo': 6, 'Se': 6}",5.8,0.0,,,10.1103/physrevb.98.014104
Tl 2 Mo 6 Se 6,{},"{'Tl': 2, 'Mo': 6, 'Se': 6}",6.8,0.0,,,10.1103/physrevb.98.014104
Tl 2 Mo 6 Se 6,{},"{'Tl': 2, 'Mo': 6, 'Se': 6}",4.2,0.0,,,10.1103/physrevb.98.014104
Mo 3 Sb 7,{},"{'Mo': 3, 'Sb': 7}",2.2,0.0,,,10.1103/physrevb.78.060507
Bi 2 Sr 2 Ca Cu 2 O 8,{},"{'Bi': 2, 'Sr': 2, 'Ca': 1, 'Cu': 2, 'O': 8}",93.0,0.0,single crystal,,10.1103/physrevb.98.155133
Y Ba 2 Co 0.3 Cu 2.7 O y,{'y': []},,25.0,0.0,,,10.1038/srep06244
Y Ba 2 Cu 3 O 7-δ,{'δ': []},,90.0,0.0,,,10.1038/srep06244
La 2-x Sr x Cu O 4,{'x': []},,25.0,0.0,,,10.1038/srep06244
K Fe 2 As 2,{},"{'K': 1, 'Fe': 2, 'As': 2}",3.0,0.0,,,10.1016/j.jallcom.2016.12.171
Ba Fe 2 As 2,{},"{'Ba': 1, 'Fe': 2, 'As': 2}",38.0,0.0,,,10.1016/j.jallcom.2016.12.171
K F e2 As 2,{'e': []},,3.0,0.0,,,10.1016/j.jallcom.2016.12.171
K 0.7 Sm 0.3 Fe 2 As 2,{},"{'K': 0.7, 'Sm': 0.3, 'Fe': 2, 'As': 2}",36.0,0.0,,,10.1016/j.jallcom.2016.12.171
K 0.7 Sm 0.3 Fe 2 As 2,{},"{'K': 0.7, 'Sm': 0.3, 'Fe': 2, 'As': 2}",35.0,0.0,,,10.1016/j.jallcom.2016.12.171
K 0.6 Sm 0.4 Fe 2 As 2,{},"{'K': 0.6, 'Sm': 0.4, 'Fe': 2, 'As': 2}",35.0,0.0,,,10.1016/j.jallcom.2016.12.171
K 1-x Sm x Fe 2 As 2,{'x': [0.3]},"{'K': 0.7, 'Sm': 0.3, 'Fe': 2, 'As': 2}",36.0,0.0,,,10.1016/j.jallcom.2016.12.171
K 1-x Sm x Fe 2 As 2,{'x': [0.3]},"{'K': 0.7, 'Sm': 0.3, 'Fe': 2, 'As': 2}",35.0,0.0,,,10.1016/j.jallcom.2016.12.171
Sr Fe 2 As 2,{},"{'Sr': 1, 'Fe': 2, 'As': 2}",37.0,0.0,,,10.1016/j.jallcom.2016.12.171
U Rh Ge,{},"{'U': 1, 'Rh': 1, 'Ge': 1}",0.5,0.0,,,10.1103/physrevb.80.184518
Li 1-x Fe As,{'x': []},,18.0,0.0,,,10.1143/jpsj.78.034716
La 1-x Sr x Fe As O,{'x': []},,25.0,0.0,,,10.1143/jpsj.78.034716
La Fe As O 1-y,{'y': []},,41.0,0.0,,,10.1143/jpsj.78.034716
Ce Fe As O 1-y,{'y': []},,41.0,0.0,,,10.1143/jpsj.78.034716
Pr Fe As O 1-y,{'y': []},,41.0,0.0,,,10.1143/jpsj.78.034716
Nd Fe As O 1-y,{'y': []},,41.0,0.0,,,10.1143/jpsj.78.034716
Sm Fe As O 1-y,{'y': []},,41.0,0.0,,,10.1143/jpsj.78.034716
Gd Fe As O 1-y,{'y': []},,41.0,0.0,,,10.1143/jpsj.78.034716
La Fe As O 1-x F x,{'x': [0.05]},"{'La': 1, 'Fe': 1, 'As': 1, 'O': 0.95, 'F': 0.05}",26.0,0.0,,,10.1143/jpsj.78.034716
Ba 1-x K x Fe 2 As 2,{'x': []},,38.0,0.0,,,10.1143/jpsj.78.034716
Fe Se,{},"{'Fe': 1, 'Se': 1}",8.0,0.0,,,10.1143/jpsj.78.034716
Ca 1-x Na x Fe 2 As 2,{'x': []},,20.0,0.0,,,10.1143/jpsj.78.034716
Hg Ba 2 Cu O 4+δ,{'δ': []},,74.0,0.0,single crystals,,
Hg Ba 2 Cu O 4+δ,{'δ': []},,80.0,0.0,,,
Hg Ba 2 Cu O 4+δ,{'δ': []},,97.0,0.0,,,
(La 1-x Sr x) F e As O,"{'x': [], 'e': []}",,25.0,0.0,,,10.1103/physrevb.78.104528
La Ni As O,{},"{'La': 1, 'Ni': 1, 'As': 1, 'O': 1}",2.4,0.0,,,10.1103/physrevb.78.104528
La N i As O,{'i': []},,2.4,0.0,,,10.1103/physrevb.78.104528
Na x (H 2 O) y (Sn S) 1+δ (Ta S 2) 2,"{'δ': [], 'x': [], 'y': []}",,4.0,0.0,,,10.1103/physrevb.80.052501
Na x (H 2 O) y (Pb S) 1+δ (Ta S 2) 2,"{'δ': [], 'x': [], 'y': []}",,4.0,0.0,,,10.1103/physrevb.80.052501
Na x (H 2 O) y (Sb S) 1+δ (Ta S 2) 2,"{'δ': [], 'x': [], 'y': []}",,4.0,0.0,,,10.1103/physrevb.80.052501
Sr Fe 2 As 2,{},"{'Sr': 1, 'Fe': 2, 'As': 2}",25.0,0.0,epitaxial thin films,,10.1103/physrevb.80.052501
Sr Fe 2 As 2,{},"{'Sr': 1, 'Fe': 2, 'As': 2}",21.0,0.0,epitaxial films,,10.1103/physrevb.80.052501
Gd Fe As O,{},"{'Gd': 1, 'Fe': 1, 'As': 1, 'O': 1}",56.0,0.0,,,10.1103/physrevb.80.052501
Sr Fe 2 As 2,{},"{'Sr': 1, 'Fe': 2, 'As': 2}",20.0,0.0,epitaxial films,,10.1103/physrevb.80.052501
Sr Fe 2 As 2,{},"{'Sr': 1, 'Fe': 2, 'As': 2}",25.0,0.0,epitaxial films,,10.1103/physrevb.80.052501
Bi 2 Sr 2 Ca Cu 2 O 8,{},"{'Bi': 2, 'Sr': 2, 'Ca': 1, 'Cu': 2, 'O': 8}",76.0,0.0,,,10.1209/epl/i2000-00123-2
Bi 2 Sr 2 Ca Cu 2 O 8,{},"{'Bi': 2, 'Sr': 2, 'Ca': 1, 'Cu': 2, 'O': 8}",75.0,0.0,single crystals,,10.1209/epl/i2000-00123-2
Bi 2 Sr 2 Ca Cu 2 O 8,{},"{'Bi': 2, 'Sr': 2, 'Ca': 1, 'Cu': 2, 'O': 8}",76.0,0.0,single crystal,,10.1209/epl/i2000-00123-2
Bi 2 Sr 2 Ca Cu 2 O 8,{},"{'Bi': 2, 'Sr': 2, 'Ca': 1, 'Cu': 2, 'O': 8}",21.0,0.0,single crystals,,10.1209/epl/i2000-00123-2
Sm,{},{'Sm': 1},40.0,0.0,,,10.1143/jpsjs.77sc.123
(Tl 0.58 Rb 0.42) Fe 1.72 Se 2,{},"{'Tl': 0.58, 'Rb': 0.42, 'Fe': 1.72, 'Se': 2}",32.0,0.0,,,10.1038/ncomms1946
Fe Se,{},"{'Fe': 1, 'Se': 1}",50.0,0.0,,,10.1038/ncomms1946
(Ba 1.6 K 0.4) Fe 2 As 2,{},"{'Ba': 1.6, 'K': 0.4, 'Fe': 2, 'As': 2}",35.0,0.0,,,10.1038/ncomms1946
Fe Se,{},"{'Fe': 1, 'Se': 1}",55.0,0.0,single layer,,10.1038/ncomms1946
Fe Se,{},"{'Fe': 1, 'Se': 1}",32.0,0.0,,,10.1038/ncomms1946
Fe Se,{},"{'Fe': 1, 'Se': 1}",8.0,0.0,,,10.1038/ncomms1946
K x Fe 2-y Se 2,"{'x': [], 'y': []}",,48.0,0.0,,,10.1038/ncomms1946
Cs x Fe 2-y Se 2,"{'x': [], 'y': []}",,48.0,0.0,,,10.1038/ncomms1946
Rb x Fe 2-y Se 2,"{'x': [], 'y': []}",,48.0,0.0,,,10.1038/ncomms1946
Tl x Fe 2-y Se 2,"{'x': [], 'y': []}",,48.0,0.0,,,10.1038/ncomms1946
Fe Se,{},"{'Fe': 1, 'Se': 1}",55.0,0.0,,,10.1038/ncomms1946
(Ba 1.6 K 0.4) Fe 2 As 2,{},"{'Ba': 1.6, 'K': 0.4, 'Fe': 2, 'As': 2}",32.0,0.0,,,10.1038/ncomms1946
Ba Fe 2 (As 1-x P x) 2,{'x': []},,31.0,0.0,,,10.1016/j.jcrysgro.2016.04.047
Pb,{},{'Pb': 1},7.2,0.0,,,10.1103/physrevb.73.184507
Nb 3 Sn,{},"{'Nb': 3, 'Sn': 1}",18.0,0.0,,,10.1016/j.cap.2011.09.003
Nb Ti,{},"{'Nb': 1, 'Ti': 1}",9.0,0.0,,,10.1016/j.cap.2011.09.003
Mg B 2,{},"{'Mg': 1, 'B': 2}",39.0,0.0,,,10.1016/j.cap.2011.09.003
Mg B 2,{},"{'Mg': 1, 'B': 2}",39.0,0.0,"polycrystalline, films",,10.1016/j.cap.2011.09.003
Mg B 2,{},"{'Mg': 1, 'B': 2}",37.5,0.0,films,,10.1016/j.cap.2011.09.003
Ca C 6,{},"{'Ca': 1, 'C': 6}",11.5,0.0,,,10.1073/pnas.1510435112
Pu Co Ga 5,{},"{'Pu': 1, 'Co': 1, 'Ga': 5}",18.5,0.0,,,10.1016/j.physb.2005.11.047
Ce Ir In 5,{},"{'Ce': 1, 'Ir': 1, 'In': 5}",2.0,0.0,,,10.1016/j.physb.2005.11.047
Pu Co Ga 5,{},"{'Pu': 1, 'Co': 1, 'Ga': 5}",18.5,0.0,single-crystalline,,10.1016/j.physb.2005.11.047
Bi 2 Sr 2 Ca Cu 2 O 8,{},"{'Bi': 2, 'Sr': 2, 'Ca': 1, 'Cu': 2, 'O': 8}",84.0,0.0,,,10.1103/physrevb.71.014524
Bi 2 Sr 2 Ca Cu 2 O 8,{},"{'Bi': 2, 'Sr': 2, 'Ca': 1, 'Cu': 2, 'O': 8}",89.0,0.0,,,10.1103/physrevb.71.014524
Ba (Fe 1-x Co x) 2 As 2,{'x': []},,24.5,0.0,thin films,,10.1063/1.3259922
Ba Fe 2 As 2,{},"{'Ba': 1, 'Fe': 2, 'As': 2}",55.0,0.0,,,10.1063/1.3259922
Ba Fe 2 As 2,{},"{'Ba': 1, 'Fe': 2, 'As': 2}",38.0,0.0,,,10.1063/1.3259922
La Fe As O 1-x F x,{'x': []},,43.0,0.0,,,10.1063/1.3259922
B 4 S,{},"{'B': 4, 'S': 1}",15.0,0.0,,,10.1103/physrevb.97.054501
Cs x Rb y C 60,"{'x': [], 'y': []}",,33.0,0.0,,,10.1103/physrevb.97.054501
Ca C 6,{},"{'Ca': 1, 'C': 6}",11.5,0.0,,,10.1103/physrevb.97.054501
Mg B 2,{},"{'Mg': 1, 'B': 2}",39.0,0.0,,,10.1103/physrevb.97.054501
In 10 Sn 90,{},"{'In': 10, 'Sn': 90}",3.7,0.0,,,
Fe Se 1-x S x,{'x': []},,15.0,0.0,single crystals,,10.1088/1361-6668/ab1387
Fe C h,{'h': []},,30.0,0.0,,,10.1103/physrevb.91.174517
Ca K Fe 4 As 4,{},"{'Ca': 1, 'K': 1, 'Fe': 4, 'As': 4}",35.8,0.0,,,10.1103/physrevb.96.094521
Ba 0.46 K 0.54 Fe 2 As 2,{},"{'Ba': 0.46, 'K': 0.54, 'Fe': 2, 'As': 2}",34.0,0.0,,,10.1103/physrevb.96.094521
K x Fe 2-y Se 2,"{'x': [], 'y': []}",,32.0,0.0,,,10.1103/physrevb.90.214516
Rb x Fe 2-y Se 2,"{'x': [], 'y': []}",,32.0,0.0,,,10.1103/physrevb.90.214516
Cs x Fe 2-y Se 2,"{'x': [], 'y': []}",,32.0,0.0,,,10.1103/physrevb.90.214516
Fe Se,{},"{'Fe': 1, 'Se': 1}",8.0,0.0,,,10.1063/1.3366602
Fe Se,{},"{'Fe': 1, 'Se': 1}",15.0,1.48,,,10.1063/1.3366602
Cu (N C S) 2,{},"{'Cu': 1, 'N': 2, 'C': 2, 'S': 2}",10.0,0.0,,,10.1103/physrevb.63.134524
Bi 2 Sr 2 Ca 2 Cu 3 O 10,{},"{'Bi': 2, 'Sr': 2, 'Ca': 2, 'Cu': 3, 'O': 10}",110.0,0.0,single crystals,,
Bi 2 Sr 2 Ca 2 Cu 3 O 10,{},"{'Bi': 2, 'Sr': 2, 'Ca': 2, 'Cu': 3, 'O': 10}",110.0,0.0,,,
Li 2 Pt 3 B,{},"{'Li': 2, 'Pt': 3, 'B': 1}",2.7,0.0,,,10.7566/jpsj.82.024703
Mg B 2,{},"{'Mg': 1, 'B': 2}",39.0,0.0,,,10.1103/physrevb.68.060508
Sm Fe As O 0.8 F 0.2,{},"{'Sm': 1, 'Fe': 1, 'As': 1, 'O': 0.8, 'F': 0.2}",45.2,0.0,,,
Sm Fe As O 0.8 F 0.2,{},"{'Sm': 1, 'Fe': 1, 'As': 1, 'O': 0.8, 'F': 0.2}",40.5,0.0,,,
Ba K Fe As,{},"{'Ba': 1, 'K': 1, 'Fe': 1, 'As': 1}",38.0,0.0,,,
Sm Fe As O 0.8 F 0.2,{},"{'Sm': 1, 'Fe': 1, 'As': 1, 'O': 0.8, 'F': 0.2}",50.0,0.0,polycrystalline,,
Mo Te 2,{},"{'Mo': 1, 'Te': 2}",0.1,0.0,,,10.1103/physrevb.95.100501
Ce Co In 5,{},"{'Ce': 1, 'Co': 1, 'In': 5}",2.3,0.0,,,10.1038/nphys2672
Al,{},{'Al': 1},1.2,0.0,single-crystal,,10.1038/nphys2672
Ce Ir In 5,{},"{'Ce': 1, 'Ir': 1, 'In': 5}",1.38,0.0,Pris- tine,,10.1103/physrevb.93.201102
Ce Rh In 5,{},"{'Ce': 1, 'Rh': 1, 'In': 5}",2.2,2.35,,,10.1103/physrevb.93.201102
Ce Ir In 5,{},"{'Ce': 1, 'Ir': 1, 'In': 5}",1.38,0.0,,,10.1103/physrevb.93.201102
Mg B 2,{},"{'Mg': 1, 'B': 2}",39.0,0.0,,,10.1088/0953-2048/15/10/101
Nb 3 Ge,{},"{'Nb': 3, 'Ge': 1}",23.0,0.0,,,10.1088/0953-2048/15/10/101
Mg B 2 O 4,{},"{'Mg': 1, 'B': 2, 'O': 4}",37.0,0.0,,,10.1088/0953-2048/15/10/101
Sm Fe As O 0.85 F 0.15,{},"{'Sm': 1, 'Fe': 1, 'As': 1, 'O': 0.85, 'F': 0.15}",42.0,0.0,,,10.1016/j.cossms.2013.05.004
Ba (Fe 1-x Co x) 2 As 2,{'x': [0.1]},"{'Ba': 1, 'Fe': 1.8, 'Co': 0.2, 'As': 2}",24.5,0.0,crystals,,10.1016/j.cossms.2013.05.004
Bi 2 Sr 2 Ca Cu 2 O 8,{},"{'Bi': 2, 'Sr': 2, 'Ca': 1, 'Cu': 2, 'O': 8}",56.0,0.0,,,10.1103/physrevlett.96.017004
Bi 2 Sr 2 Ca Cu 2 O 8,{},"{'Bi': 2, 'Sr': 2, 'Ca': 1, 'Cu': 2, 'O': 8}",60.0,0.0,,,10.1103/physrevlett.96.017004
Ru 0.55 Rh 0.45 P,{},"{'Ru': 0.55, 'Rh': 0.45, 'P': 1}",3.7,0.0,,,10.1103/physrevb.98.214517
Ru 0.75 Rh 0.25 As,{},"{'Ru': 0.75, 'Rh': 0.25, 'As': 1}",0.074,0.0,,,10.1103/physrevb.98.214517
Ru 0.75 Rh 0.25 As,{},"{'Ru': 0.75, 'Rh': 0.25, 'As': 1}",1.6,0.0,,,10.1103/physrevb.98.214517
Nb,{},{'Nb': 1},8.544,0.0,film,,10.1038/s42005-020-0329-z
Ce Ir In 5,{},"{'Ce': 1, 'Ir': 1, 'In': 5}",0.4,0.0,,,10.1103/physrevb.66.134418
Ce Co In 5,{},"{'Ce': 1, 'Co': 1, 'In': 5}",2.3,0.0,,,10.1103/physrevb.66.134418
Pb Ta Se 2,{},"{'Pb': 1, 'Ta': 1, 'Se': 2}",1.8,0.0,,,
Pb Ta Se 2,{},"{'Pb': 1, 'Ta': 1, 'Se': 2}",3.8,0.0,single crystalline,,
Y Ba 2 Cu 3 O 6.6,{},"{'Y': 1, 'Ba': 2, 'Cu': 3, 'O': 6.6}",68.0,0.0,,,10.1063/1.1630713
Y Ba 2 Cu 3 O 6+x,{'x': []},,74.0,0.0,film,,10.1063/1.1630713
Pr Os 4 Sb 12,{},"{'Pr': 1, 'Os': 4, 'Sb': 12}",1.3,0.0,,,10.1103/physrevb.89.144419
Pr 0.75 Nd 0.25 Os 4 Sb 12,{},"{'Pr': 0.75, 'Nd': 0.25, 'Os': 4, 'Sb': 12}",25.0,0.0,,,10.1103/physrevb.89.144419
Pr Os 4 Sb 12,{},"{'Pr': 1, 'Os': 4, 'Sb': 12}",0.5,0.0,,,10.1103/physrevb.89.144419
Y Fe 2 Ge 2,{},"{'Y': 1, 'Fe': 2, 'Ge': 2}",1.8,0.0,,,10.1103/physrevlett.122.217003
H 3 S,{},"{'H': 3, 'S': 1}",200.0,170.0,,,10.1007/978-94-007-2384-9_22
Ba 0.6 K 0.4 Fe 2 As 2,{},"{'Ba': 0.6, 'K': 0.4, 'Fe': 2, 'As': 2}",37.0,0.0,,,10.1016/j.physleta.2016.05.054
La Ru 2 P 2,{},"{'La': 1, 'Ru': 2, 'P': 2}",4.0,0.0,,,
Mg B 2,{},"{'Mg': 1, 'B': 2}",40.0,0.0,,,10.1103/physrevb.70.172503
Mg 2 B 3 O,{},"{'Mg': 2, 'B': 3, 'O': 1}",1.6,0.0,,,10.1103/physrevb.70.172503
Mg 2 B 3 O 2,{},"{'Mg': 2, 'B': 3, 'O': 2}",18.3,0.0,,,10.1103/physrevb.70.172503
Ba 1-x K x Bi O 3,{'x': []},,35.0,0.0,,,10.1063/1.59601
Zr N Cl,{},"{'Zr': 1, 'N': 1, 'Cl': 1}",12.0,0.0,,,10.1063/1.59601
Na x Hf N Cl,{'x': []},,25.0,0.0,,,10.1063/1.59601
Y Ba 2 Cu 3 O 7-δ,{'δ': []},,90.0,0.0,thin film,SrTiO substrate,10.1021/bk-1999-0730.ch016
Y Ba 2 Cu 3 O 7-δ,{'δ': []},,90.0,0.0,,,10.1021/bk-1999-0730.ch016
Y Ba 2 Cu 3 O 7-δ,{'δ': [0.44]},"{'Y': 1, 'Ba': 2, 'Cu': 3, 'O': 6.56}",53.0,0.0,,,10.1021/bk-1999-0730.ch016
Y Ba 2 Cu 3 O 6.45,{},"{'Y': 1, 'Ba': 2, 'Cu': 3, 'O': 6.45}",35.0,0.0,single crystals,,10.1126/science.1152309
U Ge 2,{},"{'U': 1, 'Ge': 2}",35.0,0.0,,,10.1088/0953-8984/15/24/105
Bi 2 Sr 2 Ca Cu 2 O 8+δ,{'δ': []},,91.0,0.0,single-crystals,,
Bi 2 Sr 2 Ca Cu 2 O 8,{},"{'Bi': 2, 'Sr': 2, 'Ca': 1, 'Cu': 2, 'O': 8}",50.0,0.0,,,
Mn Si,{},"{'Mn': 1, 'Si': 1}",2.0,0.0,single crystalline,,10.1016/j.physb.2006.01.062
U Pt 3,{},"{'U': 1, 'Pt': 3}",0.5,0.0,,,10.1103/physrevb.66.035110
Mg B 2,{},"{'Mg': 1, 'B': 2}",39.0,0.0,,,10.1209/0295-5075/78/47001
Nb Ge,{},"{'Nb': 1, 'Ge': 1}",2.93,0.0,bilayer films,,10.1103/physrevb.81.184503
U Te 2,{},"{'U': 1, 'Te': 2}",1.7,0.0,,,10.1103/physrevb.100.134502
Ru Sr 2 Gd Cu 2 O 8,{},"{'Ru': 1, 'Sr': 2, 'Gd': 1, 'Cu': 2, 'O': 8}",133.0,0.0,,,
Cs,{},{'Cs': 1},1.5,7.0,,,10.1103/physrevb.73.184516
Mg 10 Ir 19 B 16,{},"{'Mg': 10, 'Ir': 19, 'B': 16}",5.0,0.0,,,10.1103/physrevb.76.064527
Mg Ir B,{},"{'Mg': 1, 'Ir': 1, 'B': 1}",2.0,0.0,,,10.1103/physrevb.76.064527
Gd O 0.88 Fe As,{},"{'Gd': 1, 'O': 0.88, 'Fe': 1, 'As': 1}",50.0,0.0,,,10.3367/ufne.0184.201408i.0888
Sm (Th) O Fe As,{},"{'Sm': 1, 'Th': 1, 'O': 1, 'Fe': 1, 'As': 1}",37.0,0.0,,,10.3367/ufne.0184.201408i.0888
Fe Se,{},"{'Fe': 1, 'Se': 1}",10.0,0.0,single crystals,,10.3367/ufne.0184.201408i.0888
Gd O 0.88 Fe As,{},"{'Gd': 1, 'O': 0.88, 'Fe': 1, 'As': 1}",49.0,0.0,,,10.3367/ufne.0184.201408i.0888
Ce O 0.88 F 0.12 Fe As,{},"{'Ce': 1, 'O': 0.88, 'F': 0.12, 'Fe': 1, 'As': 1}",41.0,0.0,,,10.3367/ufne.0184.201408i.0888
O P 35 K,{},"{'O': 1, 'P': 35, 'K': 1}",35.0,0.0,,,10.5772/50970
Bi 2 Sr 2 Cu O 6,{},"{'Bi': 2, 'Sr': 2, 'Cu': 1, 'O': 6}",35.0,0.0,,,10.5772/50970
Hg Ba 2 Ca 2 Cu 3 O 8+δ,{'δ': []},,134.0,0.0,,,10.5772/50970
Bi 2 Sr 2 Ca Cu 2 O 8+δ,{'δ': []},,90.0,0.0,single-crystals,,10.5772/50970
Ta Sn S 2,{},"{'Ta': 1, 'Sn': 1, 'S': 2}",2.95,0.0,,,10.1016/j.physc.2015.02.023
Ta Fe 0.05 S 2,{},"{'Ta': 1, 'Fe': 0.05, 'S': 2}",0.6,0.0,,,10.1016/j.physc.2015.02.023
Tl 2 Ba 2 Cu O 6,{},"{'Tl': 2, 'Ba': 2, 'Cu': 1, 'O': 6}",15.0,0.0,,,10.1088/1367-2630/9/2/028
Tl 2 Ba 2 Cu O 6,{},"{'Tl': 2, 'Ba': 2, 'Cu': 1, 'O': 6}",30.0,0.0,,,10.1088/1367-2630/9/2/028
Bi 2 Sr 2 Cu O 6+δ,{'δ': []},,23.0,0.0,,,10.1088/1367-2630/9/2/028
Tl 2 Ba 2 Cu O 6,{},"{'Tl': 2, 'Ba': 2, 'Cu': 1, 'O': 6}",16.0,0.0,,,10.1088/1367-2630/9/2/028
Tl 2 Ba 2 Cu O 6,{},"{'Tl': 2, 'Ba': 2, 'Cu': 1, 'O': 6}",67.7,0.0,single crystal,,10.1088/1367-2630/9/2/028
Tl 2 Ba 2 Cu O 6,{},"{'Tl': 2, 'Ba': 2, 'Cu': 1, 'O': 6}",30.0,0.0,crystal,,10.1088/1367-2630/9/2/028
Tl 2 Ba 2 Cu O 6,{},"{'Tl': 2, 'Ba': 2, 'Cu': 1, 'O': 6}",20.0,0.0,crystal,,10.1088/1367-2630/9/2/028
Bi 2 Sr 2 Ca Cu 2 O 8+δ,{'δ': []},,88.0,0.0,,,10.1088/1367-2630/9/2/028
Bi 2 Sr 2 Ca 2 Cu 3 O 8+δ,{'δ': []},,108.0,0.0,,,10.1016/j.physc.2011.05.244
Fe Se,{},"{'Fe': 1, 'Se': 1}",9.0,0.0,,,10.1103/physrevb.100.155127
U Ge 2,{},"{'U': 1, 'Ge': 2}",0.5,1.2,,,
U Ge 2,{},"{'U': 1, 'Ge': 2}",0.25,0.0,,,
U Co Ge,{},"{'U': 1, 'Co': 1, 'Ge': 1}",0.425,0.0,,,
U Rh Ge,{},"{'U': 1, 'Rh': 1, 'Ge': 1}",9.5,0.0,,,
Ce 3 Pt In 11,{},"{'Ce': 3, 'Pt': 1, 'In': 11}",0.32,0.0,,,
La 1.78 Sr 0.22 Cu O 4,{},"{'La': 1.78, 'Sr': 0.22, 'Cu': 1, 'O': 4}",26.0,0.0,,,10.1103/physrevlett.99.067002
Mg B 2,{},"{'Mg': 1, 'B': 2}",10.0,0.0,,,10.1088/0953-2048/19/6/024
Ca K Fe 4 As 4,{},"{'Ca': 1, 'K': 1, 'Fe': 4, 'As': 4}",35.0,0.0,,,10.1142/s021798492050164x
Ca K Fe 4 As 4,{},"{'Ca': 1, 'K': 1, 'Fe': 4, 'As': 4}",35.0,0.0,Single crystals,,10.1142/s021798492050164x
K x Fe 2 Se 2,{'x': []},,32.0,0.0,,,10.1016/j.physc.2012.04.041
Mg B 2,{},"{'Mg': 1, 'B': 2}",39.0,0.0,,,10.1016/s0921-4534(97)00778-8
Mg B 2,{},"{'Mg': 1, 'B': 2}",0.6,0.0,,,10.1016/s0921-4534(97)00778-8
Mg B 2,{},"{'Mg': 1, 'B': 2}",37.0,0.0,,,10.1063/1.1420771
Mg B 2,{},"{'Mg': 1, 'B': 2}",39.0,0.0,,,10.1063/1.1420771
Mg B 2,{},"{'Mg': 1, 'B': 2}",35.5,0.0,,,10.1063/1.1420771
Sr 2 Ru O 4,{},"{'Sr': 2, 'Ru': 1, 'O': 4}",1.5,0.0,,,10.1103/physrevb.69.014516
La O 0.5 F 0.5 Bi S Se,{},"{'La': 1, 'O': 0.5, 'F': 0.5, 'Bi': 1, 'S': 1, 'Se': 1}",3.8,0.0,,,10.1016/j.jssc.2014.07.026
La (O F) Bi S 2,{},"{'La': 1, 'O': 1, 'F': 1, 'Bi': 1, 'S': 2}",3.6,0.0,,,10.1016/j.jssc.2014.07.026
La (O F) Bi S 2,{},"{'La': 1, 'O': 1, 'F': 1, 'Bi': 1, 'S': 2}",2.5,0.0,,,10.1016/j.jssc.2014.07.026
La (O F) Bi Se 2,{},"{'La': 1, 'O': 1, 'F': 1, 'Bi': 1, 'Se': 2}",2.6,0.0,,,10.1016/j.jssc.2014.07.026
La 1.48 Nd 0.4 Sr 0.12 Cu O 4,{},"{'La': 1.48, 'Nd': 0.4, 'Sr': 0.12, 'Cu': 1, 'O': 4}",22.0,5.0,,,10.1016/j.physc.2012.04.003
Ce 0.99 Cu 2.02 Si 2,{},"{'Ce': 0.99, 'Cu': 2.02, 'Si': 2}",0.65,0.0,Polycrystalline,,10.1143/jpsj.72.2914
Ce Cu 2 (Si 0.99 Ge 0.01) 2,{},"{'Ce': 1, 'Cu': 2, 'Si': 1.98, 'Ge': 0.02}",0.5,0.0,,,10.1143/jpsj.72.2914
La 2-x Sr x Cu O 4,{'x': []},,36.0,0.0,,,10.1103/physrevb.93.075152
Eu Ce Ru Sr 2 Cu 2 O 10,{},"{'Eu': 1, 'Ce': 1, 'Ru': 1, 'Sr': 2, 'Cu': 2, 'O': 10}",125.0,0.0,,,10.1117/12.466655
I B S s,{'s': []},,40.0,0.0,,,10.1088/0953-2048/26/9/095003
Nb Ti N,{},"{'Nb': 1, 'Ti': 1, 'N': 1}",13.3,0.0,films,,10.1038/ncomms16025
Fe Se,{},"{'Fe': 1, 'Se': 1}",15.0,0.0,,,10.1088/0953-8984/24/11/115701
K 0.8 Fe 1.6 Se 2,{},"{'K': 0.8, 'Fe': 1.6, 'Se': 2}",31.8,0.0,,,10.1088/0953-8984/24/11/115701
Fe Se,{},"{'Fe': 1, 'Se': 1}",32.0,0.0,,,10.1088/0953-8984/24/11/115701
Fe Se,{},"{'Fe': 1, 'Se': 1}",8.0,0.0,,,10.1088/0953-8984/24/11/115701
Fe Se,{},"{'Fe': 1, 'Se': 1}",37.0,0.0,,,10.1088/0953-8984/24/11/115701
Sm Fe As O,{},"{'Sm': 1, 'Fe': 1, 'As': 1, 'O': 1}",55.0,0.0,,,10.1088/0953-8984/24/11/115701
S,{},{'S': 1},60.0,0.0,,,
La Ir 3,{},"{'La': 1, 'Ir': 3}",3.3,0.0,,,10.1088/1361-648x/aa90a8
La Ir 2.8,{},"{'La': 1, 'Ir': 2.8}",2.75,0.0,,,10.1088/1361-648x/aa90a8
La Fe As O 1-x F x,{'x': []},,26.0,0.0,,,10.1103/physrevb.78.172508
La O 0.9 F 0.1 Fe As 1-δ,{'δ': []},,28.5,0.0,,,10.1088/1367-2630/11/7/075007