Material,Substitutions,Composition,Tc (K),Pressure (GPa),Shape,Substrate,DOI
Hf Pd 2 Al,{},"{'Hf': 1, 'Pd': 2, 'Al': 1}",3.53,0.0,,,10.1103/physrevb.91.024509
Hf Pd 2 Al,{},"{'Hf': 1, 'Pd': 2, 'Al': 1}",3.7,0.0,,,10.1103/physrevb.91.024509
Pr 2-x Ce x Cu O 4-δ,"{'δ': [], 'x': []}",,1.5,0.0,,,
Pb,{},{'Pb': 1},7.2,0.0,,,10.1021/acsnano.9b07475
Pb,{},{'Pb': 1},7.1,0.0,,,10.1021/acsnano.9b07475
Cs Os 2 O 6,{},"{'Cs': 1, 'Os': 2, 'O': 6}",3.3,0.0,,,10.1103/physrevb.70.100505
K Os 2 O 6,{},"{'K': 1, 'Os': 2, 'O': 6}",9.6,0.0,,,10.1103/physrevb.70.100505
Rb Os 2 O 6,{},"{'Rb': 1, 'Os': 2, 'O': 6}",6.3,0.0,,,10.1103/physrevb.70.100505
K 2 Fe 4 Se 5,{},"{'K': 2, 'Fe': 4, 'Se': 5}",30.0,0.0,,,10.1209/0295-5075/111/27004
Fe Se,{},"{'Fe': 1, 'Se': 1}",31.0,0.0,,,10.1209/0295-5075/111/27004
Ni S 2,{},"{'Ni': 1, 'S': 2}",30.0,0.0,,,10.1143/jpsj.69.1503
Bi 2 Sr 2-x La x Cu O 6+δ,"{'δ': [], 'x': [0.8]}",,11.0,0.0,,,10.1142/9789813273146_0019
K 3 C 60,{},"{'K': 3, 'C': 60}",20.0,0.0,,,10.1103/physrevb.84.214506
Ca 1.5,{},{'Ca': 1.5},7.0,0.0,,,10.1103/physrevb.84.214506
K 3,{},{'K': 3},18.0,0.0,,,10.1103/physrevb.84.214506
Cs 3 C 60,{},"{'Cs': 3, 'C': 60}",40.0,15.0,,,10.1103/physrevb.84.214506
Ca C 6,{},"{'Ca': 1, 'C': 6}",0.1,0.0,,,10.1103/physrevb.84.214506
Cs 2 Rb C 60,{},"{'Cs': 2, 'Rb': 1, 'C': 60}",33.0,0.0,,,10.1103/physrevb.84.214506
Bi Pd,{},"{'Bi': 1, 'Pd': 1}",3.8,0.0,,,10.1088/1367-2630/15/6/065001
Sr Fe 1.75 Co 0.25 As 2,{},"{'Sr': 1, 'Fe': 1.75, 'Co': 0.25, 'As': 2}",13.3,0.0,single-crystalline,,10.1103/physrevlett.103.067010
Fe Te,{},"{'Fe': 1, 'Te': 1}",8.0,0.0,,,10.7566/jpsj.82.053705
Fe Se 1-x Te x,{'x': [0.7]},"{'Fe': 1, 'Se': 0.30000000000000004, 'Te': 0.7}",15.0,0.0,,,10.7566/jpsj.82.053705
Fe Se 1-x Te x,{'x': [0.9]},"{'Fe': 1, 'Se': 0.09999999999999998, 'Te': 0.9}",11.0,0.0,,,10.7566/jpsj.82.053705
Pr 0.5 Ca 0.5 Ba 2 Cu 3 O 7-y,{'y': []},,97.0,0.0,,,10.1142/s0217979299003738
Ca K Fe 4 As 4,{},"{'Ca': 1, 'K': 1, 'Fe': 4, 'As': 4}",35.0,0.0,,,10.1103/physrevb.96.140501
Y Ba 2 Cu 3 O 7-δ,{'δ': []},,92.0,0.0,,,10.1103/physrevlett.92.157006
Ba (Fe 1-x Co x) 2 As 2,{'x': [0.1]},"{'Ba': 1, 'Fe': 1.8, 'Co': 0.2, 'As': 2}",22.5,0.0,single crystals,,10.7566/jpsj.83.093703
Ba Fe 2 (As 1-x P x) 2,{'x': []},,1.2,0.0,crystal coated,,10.1126/science.1219821
Ba Fe 2 (As 1-x P x) 2,{'x': []},,1.2,0.0,"crystal, thin film",,10.1126/science.1219821
Sr 2 Ru O 4,{},"{'Sr': 2, 'Ru': 1, 'O': 4}",1.5,0.0,,,10.1073/pnas.1101469108
La,{},{'La': 1},90.0,0.0,,,10.1016/s0921-4526(01)01279-0
Ir 0.93 Te 2,{},"{'Ir': 0.93, 'Te': 2}",4.7,0.0,,,10.1103/physrevlett.109.217002
Ir 0.91 Se 2,{},"{'Ir': 0.91, 'Se': 2}",4.7,0.0,,,10.1103/physrevlett.109.217002
Ir 0.91 Se 2,{},"{'Ir': 0.91, 'Se': 2}",6.4,0.0,,,10.1103/physrevlett.109.217002
Ir 0.93 Te 2,{},"{'Ir': 0.93, 'Te': 2}",6.4,0.0,,,10.1103/physrevlett.109.217002
Nb Se 2,{},"{'Nb': 1, 'Se': 2}",7.0,0.0,crystals,,10.1088/0953-2048/23/9/099801
Al,{},{'Al': 1},1.6,0.0,thin films,,10.1021/nl100009r
Ca Fe 2 As 2,{},"{'Ca': 1, 'Fe': 2, 'As': 2}",49.0,0.0,single crystal,,10.1088/1367-2630/15/7/073019
Na Fe 1-x Co x As,{'x': []},,20.0,0.0,,,10.1103/physrevb.93.214506
Nb,{},{'Nb': 1},8.35,0.0,,,10.1103/physrevlett.83.1660
Al,{},{'Al': 1},1.6,0.0,film,,10.1103/physrevlett.83.1660
Ni Te,{},"{'Ni': 1, 'Te': 1}",2.0,0.0,,,10.1088/0953-2048/29/7/075008
Hg Ba 2 Cu O 6,{},"{'Hg': 1, 'Ba': 2, 'Cu': 1, 'O': 6}",74.0,0.0,crystal,,10.1103/physrevlett.111.187003
Ca 10 (Pt 3 As 8) ((Fe 1-x Pt x) 2 As 2) 5,{'x': []},,4.3,0.0,,,10.1103/physrevb.85.224527
U Co Ge,{},"{'U': 1, 'Co': 1, 'Ge': 1}",2.7,0.0,,,10.1103/physrevb.93.174512
Bi 2 Ba 2 Cu O 6+δ,{'δ': []},,20.0,0.0,,,10.1023/b:josc.0000011842.21466.e5
Bi 2 Sr 2 Cu O 6,{},"{'Bi': 2, 'Sr': 2, 'Cu': 1, 'O': 6}",20.0,0.0,,,10.1023/b:josc.0000011842.21466.e5
La 2-x Sr x Cu O 4,{'x': []},,40.0,0.0,,,10.1023/b:josc.0000011842.21466.e5
Mg B 2,{},"{'Mg': 1, 'B': 2}",39.0,0.0,,,10.1103/physrevlett.88.047002
Y Ba 2 Cu 3 O 7,{},"{'Y': 1, 'Ba': 2, 'Cu': 3, 'O': 7}",90.0,0.0,,,10.1103/physrevb.77.184509
Mg B 2,{},"{'Mg': 1, 'B': 2}",39.2,0.8,,,10.1007/978-1-4899-2379-0_5
Mg B 2,{},"{'Mg': 1, 'B': 2}",40.0,0.0,,,10.1007/978-1-4899-2379-0_5
Mg B 2,{},"{'Mg': 1, 'B': 2}",37.3,0.0,,,10.1007/978-1-4899-2379-0_5
Mg B 2,{},"{'Mg': 1, 'B': 2}",39.25,0.0,,,10.1007/978-1-4899-2379-0_5
Fe Se,{},"{'Fe': 1, 'Se': 1}",65.0,0.0,films,SrTiO3 substrate (named FeSe/STO,10.1038/ncomms6047
Ba Sn 3,{},"{'Ba': 1, 'Sn': 3}",4.4,0.0,,,10.1103/physrevb.93.245130
Y Pt Bi,{},"{'Y': 1, 'Pt': 1, 'Bi': 1}",1.9,0.0,,,10.1088/1674-1056/ab5b89
Tl 0.58 Rb 0.42 Fe 1.72 Se 2,{},"{'Tl': 0.58, 'Rb': 0.42, 'Fe': 1.72, 'Se': 2}",31.0,0.0,,,10.1103/physrevb.84.052503
K 0.8 Fe 2 Se 2,{},"{'K': 0.8, 'Fe': 2, 'Se': 2}",31.0,0.0,single crystal,,10.1103/physrevb.84.052503
Mg B 2,{},"{'Mg': 1, 'B': 2}",39.0,0.0,,,10.1103/physrevb.77.220501
Nb Ti N,{},"{'Nb': 1, 'Ti': 1, 'N': 1}",10.0,0.0,thin films,,10.1103/physrevlett.105.257006
Nb 3 Sn,{},"{'Nb': 3, 'Sn': 1}",18.0,0.0,,,10.1063/1.4913617
Sn Te,{},"{'Sn': 1, 'Te': 1}",2.0,0.0,,,10.1103/physrevb.99.184502
Sn 3 S 4,{},"{'Sn': 3, 'S': 4}",21.9,15.0,,,10.1103/physrevb.99.184502
Zr Zn 2,{},"{'Zr': 1, 'Zn': 2}",28.5,0.0,,,10.1103/physrevb.67.054416
Zr Zn 2,{},"{'Zr': 1, 'Zn': 2}",0.29,0.0,,,10.1103/physrevb.67.054416
U Ge 2,{},"{'U': 1, 'Ge': 2}",52.0,0.0,,,10.1103/physrevb.67.054416
U Rh Ge,{},"{'U': 1, 'Rh': 1, 'Ge': 1}",0.25,0.0,,,10.1103/physrevb.67.054416
Mg Al 2 O 4,{},"{'Mg': 1, 'Al': 2, 'O': 4}",3.0,0.0,,,10.1088/0256-307x/31/9/097201
Ga 1-x Mn x As,{'x': []},,55.0,0.0,,,10.1063/1.1370535
Bi 2 Sr 2 Ca Cu 2 O 8,{},"{'Bi': 2, 'Sr': 2, 'Ca': 1, 'Cu': 2, 'O': 8}",34.0,0.0,,,10.1038/ncomms3459
(La 2-x Sr x) Cu O 4,{'x': []},,20.0,0.0,,,10.1038/ncomms3459
La,{},{'La': 1},12.8,20.0,,,10.1016/j.physc.2010.07.001
Fe Se 1-x Te x,{'x': []},,5.0,0.0,,,10.1016/j.physc.2009.10.098
Fe 1+δ Se 0.57 Te 0.43,{'δ': []},,20.0,0.0,,,10.1016/j.physc.2009.10.098
Fe Se,{},"{'Fe': 1, 'Se': 1}",2.0,0.0,,,10.1016/j.physc.2009.10.098
Fe Se 1-x Te x,{'x': []},,14.0,0.0,,,10.1016/j.physc.2009.10.098
Fe Se,{},"{'Fe': 1, 'Se': 1}",12.0,0.0,,,10.1016/j.physc.2009.10.098
U Ru 2 Si 2,{},"{'U': 1, 'Ru': 2, 'Si': 2}",1.2,0.0,,,
Lu Ni 2 B 2 C,{},"{'Lu': 1, 'Ni': 2, 'B': 2, 'C': 1}",16.5,0.0,,,
Ba Fe 2 As 2,{},"{'Ba': 1, 'Fe': 2, 'As': 2}",22.0,0.0,,,10.1103/physrevb.80.104511
Mg B 2,{},"{'Mg': 1, 'B': 2}",18.0,0.0,,,10.1103/physrevlett.108.167001
Y Ba Cu O,{},"{'Y': 1, 'Ba': 1, 'Cu': 1, 'O': 1}",93.0,0.0,,,
Pr 0.87 La Ce 0.13 Cu O 4,{},"{'Pr': 0.87, 'La': 1, 'Ce': 0.13, 'Cu': 1, 'O': 4}",23.0,0.0,,,
U Pt 3,{},"{'U': 1, 'Pt': 3}",0.5,0.0,,,10.1134/s1063776114060132
Sr 2 Ru O 4,{},"{'Sr': 2, 'Ru': 1, 'O': 4}",1.0,0.0,,,10.1134/s1063776114060132
Ce Ir In 5,{},"{'Ce': 1, 'Ir': 1, 'In': 5}",0.4,0.0,,,
Ce Co In 5,{},"{'Ce': 1, 'Co': 1, 'In': 5}",2.3,0.0,,,
Cu S 2,{},"{'Cu': 1, 'S': 2}",1.5,0.0,,,10.1088/0256-307x/35/2/027303
Sr Ti O 3,{},"{'Sr': 1, 'Ti': 1, 'O': 3}",0.3,0.0,,,10.1103/physrevb.64.144506
Na x W O 3,{'x': []},,90.0,0.0,,,10.1103/physrevb.64.144506
Mg B 2,{},"{'Mg': 1, 'B': 2}",39.0,0.0,,,10.1142/s0217979213500793
Y Ti O 3,{},"{'Y': 1, 'Ti': 1, 'O': 3}",30.0,0.0,,,10.1103/physrevb.65.064442
La Ni C 2,{},"{'La': 1, 'Ni': 1, 'C': 2}",0.4,0.0,,,10.1088/1367-2630/15/5/053005
Ce Ir In 5,{},"{'Ce': 1, 'Ir': 1, 'In': 5}",1.3,0.0,,,10.1088/1367-2630/15/5/053005
Ce Ir In 5,{},"{'Ce': 1, 'Ir': 1, 'In': 5}",0.4,0.0,,,10.1103/physrevb.75.054523
Ce Co In 5,{},"{'Ce': 1, 'Co': 1, 'In': 5}",2.3,0.0,,,10.1103/physrevb.75.054523
Ce Rh In 5,{},"{'Ce': 1, 'Rh': 1, 'In': 5}",3.8,0.0,,,10.1103/physrevb.75.054523
B C 2,{},"{'B': 1, 'C': 2}",3.5,0.0,,,10.1016/j.physc.2019.02.011
Fe Se,{},"{'Fe': 1, 'Se': 1}",26.0,0.0,,,10.1063/1.4886995
Fe Se,{},"{'Fe': 1, 'Se': 1}",36.7,0.0,,,10.1063/1.4886995
Fe Se,{},"{'Fe': 1, 'Se': 1}",8.0,0.0,,,10.1063/1.4886995
Fe Se 0.5 Te 0.5,{},"{'Fe': 1, 'Se': 0.5, 'Te': 0.5}",21.0,0.0,thin film,,10.1063/1.4886995
Mg B 2,{},"{'Mg': 1, 'B': 2}",2.0,0.0,,,10.1063/1.4886995
Fe Se,{},"{'Fe': 1, 'Se': 1}",65.0,0.0,film,,10.1063/1.4886995
Fe 0.8 Se 0.5 Te 0.5,{},"{'Fe': 0.8, 'Se': 0.5, 'Te': 0.5}",21.0,0.0,film,,10.1063/1.4886995
La (O 1-x F x) Fe As,{'x': [0.08]},"{'La': 1, 'O': 0.92, 'F': 0.08, 'Fe': 1, 'As': 1}",26.0,0.0,,,10.1038/nature07057
Cu x Bi 2 Se 3,{'x': []},,3.0,0.0,,,10.7566/jpsj.83.064703
Sn 1-x In x Te,{'x': []},,1.2,0.0,,,10.7566/jpsj.83.064703
Nb S 2,{},"{'Nb': 1, 'S': 2}",7.2,0.0,,,
W 2 N 3,{},"{'W': 2, 'N': 3}",0.9,0.0,,,
La 2-x Sr x Cu O 4,{'x': []},,34.0,0.0,thin film,,
Sm Fe As O,{},"{'Sm': 1, 'Fe': 1, 'As': 1, 'O': 1}",42.0,0.0,,,10.1088/0256-307x/34/7/077401
Mg B 2,{},"{'Mg': 1, 'B': 2}",24.0,0.0,films,,10.1063/1.1410360
Mg B 2,{},"{'Mg': 1, 'B': 2}",1.0,0.0,,,10.1063/1.1410360
Mg B 2,{},"{'Mg': 1, 'B': 2}",38.0,0.0,films,,10.1063/1.1410360
Nb Ir 2 B 2,{},"{'Nb': 1, 'Ir': 2, 'B': 2}",7.2,0.0,,,
Ta Ir 2 B 2,{},"{'Ta': 1, 'Ir': 2, 'B': 2}",7.2,0.0,,,
Ta Ir 2 B 2,{},"{'Ta': 1, 'Ir': 2, 'B': 2}",5.2,0.0,,,
Mg B 2,{},"{'Mg': 1, 'B': 2}",39.0,0.0,,,10.1063/1.1405807
Ce Ir In 5,{},"{'Ce': 1, 'Ir': 1, 'In': 5}",0.4,0.0,,,10.1103/physrevlett.103.037005
Sm O 1-x F x Fe As,{'x': []},,55.0,0.0,,,10.1103/physrevlett.103.037005
La O 1-x F x Fe As,{'x': []},,26.0,0.0,,,10.1103/physrevlett.103.037005
Sr Fe 2 As 2,{},"{'Sr': 1, 'Fe': 2, 'As': 2}",21.0,0.0,,,10.1103/physrevlett.103.037005
Sr Fe 2 As 2,{},"{'Sr': 1, 'Fe': 2, 'As': 2}",21.0,0.0,Single crystals,,10.1103/physrevlett.103.037005
Bi,{},{'Bi': 1},82.0,0.0,,,10.1070/pu2001v044n05abeh000902
Bi,{},{'Bi': 1},87.0,0.0,,,10.1070/pu2001v044n05abeh000902
Bi,{},{'Bi': 1},83.0,0.0,,,10.1070/pu2001v044n05abeh000902
Bi,{},{'Bi': 1},85.0,0.0,,,10.1070/pu2001v044n05abeh000902
K V 3 Sb 5,{},"{'K': 1, 'V': 3, 'Sb': 5}",0.92,0.0,,,10.1103/physrevb.92.125108
Cs V 3 Sb 5,{},"{'Cs': 1, 'V': 3, 'Sb': 5}",0.93,0.0,,,10.1103/physrevb.92.125108
Cs V 3 Sb 5,{},"{'Cs': 1, 'V': 3, 'Sb': 5}",2.49,0.0,single crystal,,10.1103/physrevb.92.125108
Rb V 3 Sb 5,{},"{'Rb': 1, 'V': 3, 'Sb': 5}",2.5,0.0,,,10.1103/physrevb.92.125108
Cs V 3 Sb 5,{},"{'Cs': 1, 'V': 3, 'Sb': 5}",2.5,0.0,single crystal,,10.1103/physrevb.92.125108
Gd 1-x Th x Fe As O,{'x': []},,56.0,0.0,,,10.1103/physrevlett.110.137003
Fe Se,{},"{'Fe': 1, 'Se': 1}",40.0,0.0,,,10.1103/physrevlett.110.137003
Fe Se,{},"{'Fe': 1, 'Se': 1}",65.0,0.0,films,SrTiO 3,10.1103/physrevlett.110.137003
Cs Rb,{},"{'Cs': 1, 'Rb': 1}",30.0,0.0,,,10.1103/physrevlett.110.137003
Fe Se,{},"{'Fe': 1, 'Se': 1}",8.0,0.0,,,10.1103/physrevlett.110.137003
Bi 2 Sr 2 Ca Cu 2 O 8,{},"{'Bi': 2, 'Sr': 2, 'Ca': 1, 'Cu': 2, 'O': 8}",90.0,0.0,,,10.1088/0953-2048/17/4/016
Sr 2 Ru O 4,{},"{'Sr': 2, 'Ru': 1, 'O': 4}",1.5,0.0,,,10.1209/epl/i2002-00455-9
Mg B 2,{},"{'Mg': 1, 'B': 2}",33.1,0.0,film,,10.1088/0953-2048/18/4/004
Mn P,{},"{'Mn': 1, 'P': 1}",1.0,0.0,,,10.1038/s41535-018-0102-7
Mn P,{},"{'Mn': 1, 'P': 1}",1.0,8.0,,,10.1038/s41535-018-0102-7
Ba Fe 2 As 2,{},"{'Ba': 1, 'Fe': 2, 'As': 2}",8.0,0.0,,,10.1103/physrevb.90.144517
La Fe As O,{},"{'La': 1, 'Fe': 1, 'As': 1, 'O': 1}",8.0,0.0,,,10.1103/physrevb.90.144517
Fe Se,{},"{'Fe': 1, 'Se': 1}",50.0,0.0,films,,10.1103/physrevb.90.144517
B,{},{'B': 1},30.0,0.0,,,10.1088/0953-2048/20/1/012
Nb,{},{'Nb': 1},9.2,0.0,thin films,,10.1088/0953-8984/18/19/010
La Pt 4 Ge 12,{},"{'La': 1, 'Pt': 4, 'Ge': 12}",8.3,0.0,,,10.1103/physrevlett.100.017002
Pr Pt 4 Ge 12,{},"{'Pr': 1, 'Pt': 4, 'Ge': 12}",8.0,0.0,,,10.1103/physrevlett.100.017002
La x Rh 4 P 12,{'x': []},,17.0,0.0,,,10.1103/physrevlett.100.017002
Pr Ru 4 Sb 12,{},"{'Pr': 1, 'Ru': 4, 'Sb': 12}",1.04,0.0,,,10.1103/physrevlett.100.017002
Ce Ru 2,{},"{'Ce': 1, 'Ru': 2}",6.1,0.0,,,10.1103/physrevb.62.9191
Mg B 2,{},"{'Mg': 1, 'B': 2}",1.1,0.0,,,10.1103/physrevb.71.024520
Nb Se 2,{},"{'Nb': 1, 'Se': 2}",7.1,0.0,,,10.1103/physrevb.93.224504
Ga,{},{'Ga': 1},6.0,0.0,,,
Sn Se 2,{},"{'Sn': 1, 'Se': 2}",3.7,0.0,,,
Sn S 2,{},"{'Sn': 1, 'S': 2}",3.5,0.0,,,
Bi 2 Sr 2-x La x Cu O 6,{'x': []},,30.0,0.0,,,10.1103/physrevb.60.r6991
Mg B 2,{},"{'Mg': 1, 'B': 2}",39.0,0.0,thin films 12,,10.1063/1.1517398
Ba Fe 2 As 2,{},"{'Ba': 1, 'Fe': 2, 'As': 2}",10.0,3.5,,,10.1103/physrevb.81.144502
Sr Fe 2 As 2,{},"{'Sr': 1, 'Fe': 2, 'As': 2}",28.0,3.2,,,10.1103/physrevb.81.144502
Ce Pt 3 Si,{},"{'Ce': 1, 'Pt': 3, 'Si': 1}",0.75,0.0,,,10.1007/978-3-642-24624-1_2
U Rh Ge,{},"{'U': 1, 'Rh': 1, 'Ge': 1}",1.0,0.0,,,10.1007/978-3-642-24624-1_2
Ce Pt 3 Si,{},"{'Ce': 1, 'Pt': 3, 'Si': 1}",46.0,0.0,,,10.1007/978-3-642-24624-1_2
Ce Rh Si 3,{},"{'Ce': 1, 'Rh': 1, 'Si': 3}",46.0,0.0,,,10.1007/978-3-642-24624-1_2
U Ir,{},"{'U': 1, 'Ir': 1}",0.14,2.6,,,10.1007/978-3-642-24624-1_2
U Ir,{},"{'U': 1, 'Ir': 1}",0.14,0.0,,,10.1007/978-3-642-24624-1_2
Mg B 2,{},"{'Mg': 1, 'B': 2}",39.0,0.0,,,10.1088/0953-2048/17/11/006
Nb 2,{},{'Nb': 2},8.3,0.0,,,10.1088/0953-2048/17/11/006
Nb,{},{'Nb': 1},8.3,0.0,film,,10.1088/0953-2048/17/11/006
Nb,{},{'Nb': 1},9.25,0.0,film,,10.1088/0953-2048/17/11/006
Nb,{},{'Nb': 1},9.1,0.0,films,,10.1088/0953-2048/17/11/006
Ba (Fe 0.95 Co 0.05) 2 As 2,{},"{'Ba': 1, 'Fe': 1.9, 'Co': 0.1, 'As': 2}",9.5,0.0,,,
N x Co O 2+δ,"{'δ': [], 'x': []}",,31.0,0.0,,,10.1103/physrevlett.91.097003
Si,{},{'Si': 1},0.35,0.0,,,10.1143/jpsj.78.034715
Mg B 2,{},"{'Mg': 1, 'B': 2}",39.0,0.0,,,10.1143/jpsj.74.1394
Mg B 2,{},"{'Mg': 1, 'B': 2}",39.0,0.0,,,10.1103/physrevb.64.094514
La 1.85 Sr 0.15 Cu O 4,{},"{'La': 1.85, 'Sr': 0.15, 'Cu': 1, 'O': 4}",40.0,0.0,,,10.1103/physrevlett.86.5578
Ba Fe 2 As 2,{},"{'Ba': 1, 'Fe': 2, 'As': 2}",38.0,0.0,,,10.1088/0953-8984/22/31/315701
Sr 0.5 Sm 0.5 Fe As F,{},"{'Sr': 0.5, 'Sm': 0.5, 'Fe': 1, 'As': 1, 'F': 1}",57.4,0.0,,,10.1088/0953-8984/22/31/315701
Sm Fe As O 0.9 F 0.1,{},"{'Sm': 1, 'Fe': 1, 'As': 1, 'O': 0.9, 'F': 0.1}",55.0,0.0,,,10.1088/0953-8984/22/31/315701
Ca 0.4 Nd 0.6 Fe As F,{},"{'Ca': 0.4, 'Nd': 0.6, 'Fe': 1, 'As': 1, 'F': 1}",56.0,0.0,,,10.1088/0953-8984/22/31/315701
Gd 0.8 Th 0.2 Fe As O,{},"{'Gd': 0.8, 'Th': 0.2, 'Fe': 1, 'As': 1, 'O': 1}",56.0,0.0,,,10.1088/0953-8984/22/31/315701
Mg B 2,{},"{'Mg': 1, 'B': 2}",2.0,0.0,,,10.1103/physrevb.96.220505
Fe Se,{},"{'Fe': 1, 'Se': 1}",100.0,0.0,,SrTiO 3,10.1103/physrevb.96.220505
Li x Nb O 2,{'x': []},,5.0,0.0,,,10.1209/0295-5075/101/57006
Mg B 2,{},"{'Mg': 1, 'B': 2}",40.0,0.0,,,10.1209/0295-5075/101/57006
Hf N Cl,{},"{'Hf': 1, 'N': 1, 'Cl': 1}",25.5,0.0,,,10.1209/0295-5075/101/57006
Li Nb O 2,{},"{'Li': 1, 'Nb': 1, 'O': 2}",5.0,0.0,,,10.1209/0295-5075/101/57006
Fe S Cs,{},"{'Fe': 1, 'S': 1, 'Cs': 1}",56.0,0.0,,,10.1209/0295-5075/101/57006
Ce Rh 2 As 2,{},"{'Ce': 1, 'Rh': 2, 'As': 2}",0.26,0.0,,,10.1103/physrevb.98.144518
U Ge 2,{},"{'U': 1, 'Ge': 2}",52.0,0.0,,,10.1103/physrevb.65.174501
Bi 2 Sr 2 Ca Cu 2 O 8+δ,{'δ': []},,86.0,0.0,,,10.1103/physrevb.75.140513
Sr 0.6 K 0.4 Fe 2 As 2,{},"{'Sr': 0.6, 'K': 0.4, 'Fe': 2, 'As': 2}",35.0,0.0,polycrystalline,,10.1063/1.3592580
Y,{},{'Y': 1},1.3,0.0,,,10.1103/physrevb.73.094522
Y,{},{'Y': 1},17.0,89.0,,,10.1103/physrevb.73.094522
Li,{},{'Li': 1},16.0,33.0,,,10.1103/physrevb.73.094522
Mg B 2,{},"{'Mg': 1, 'B': 2}",40.0,0.0,,,10.1103/physrevb.73.094522
S,{},{'S': 1},17.0,157.0,,,10.1103/physrevb.73.094522
La 1.88 Sr 0.12 Cu O 4,{},"{'La': 1.88, 'Sr': 0.12, 'Cu': 1, 'O': 4}",30.0,0.0,polycrystalline,,
La 1.48 Nd 0.4 Sr 0.12 Cu O 4,{},"{'La': 1.48, 'Nd': 0.4, 'Sr': 0.12, 'Cu': 1, 'O': 4}",22.0,0.0,,,
La 1.48 Nd 0.4 Sr 0.12 Cu O 4,{},"{'La': 1.48, 'Nd': 0.4, 'Sr': 0.12, 'Cu': 1, 'O': 4}",22.0,5.0,,,
Fe Se,{},"{'Fe': 1, 'Se': 1}",9.0,0.0,,,
Fe Se,{},"{'Fe': 1, 'Se': 1}",87.0,0.0,,,
Bi 2 Sr 2 Ca Cu 2 O 8,{},"{'Bi': 2, 'Sr': 2, 'Ca': 1, 'Cu': 2, 'O': 8}",75.0,0.0,bilayer,,
Bi 2 Sr 2 Cu O 6,{},"{'Bi': 2, 'Sr': 2, 'Cu': 1, 'O': 6}",28.0,0.0,,,
Bi 2 Sr 2 Ca Cu 2 O 8+d,{'d': []},,80.0,0.0,,,
Bi 2 Sr 2 Ca Cu 2 O 8,{},"{'Bi': 2, 'Sr': 2, 'Ca': 1, 'Cu': 2, 'O': 8}",80.0,0.0,,,
Ca Mn 7 O 12,{},"{'Ca': 1, 'Mn': 7, 'O': 12}",90.0,0.0,,,10.1103/physrevlett.113.187204
Fe Te 0.55 Se 0.45,{},"{'Fe': 1, 'Te': 0.55, 'Se': 0.45}",14.0,0.0,single-crystals,,10.1063/1.4900870
Ba C 6,{},"{'Ba': 1, 'C': 6}",0.08,0.0,,,10.1103/physrevb.84.014511
Ca C 6,{},"{'Ca': 1, 'C': 6}",11.5,0.0,,,10.1103/physrevb.84.014511
Yb C 6,{},"{'Yb': 1, 'C': 6}",6.5,0.0,,,10.1103/physrevb.84.014511
Y Ba 2 Cu 4 O 7,{},"{'Y': 1, 'Ba': 2, 'Cu': 4, 'O': 7}",80.0,0.0,,,10.7567/1347-4065/ab2866
Sm Fe As O,{},"{'Sm': 1, 'Fe': 1, 'As': 1, 'O': 1}",55.0,0.0,,,10.1088/0953-2048/22/5/055016
Ca Fe As F,{},"{'Ca': 1, 'Fe': 1, 'As': 1, 'F': 1}",22.0,0.0,,,10.1088/0953-2048/22/5/055016
La Fe As O,{},"{'La': 1, 'Fe': 1, 'As': 1, 'O': 1}",26.0,0.0,,,10.1088/0953-2048/22/5/055016
K C 8,{},"{'K': 1, 'C': 8}",0.14,0.0,,,10.1007/s10948-011-1358-3
Na C 2,{},"{'Na': 1, 'C': 2}",5.0,0.0,,,10.1007/s10948-011-1358-3
Ca C 6,{},"{'Ca': 1, 'C': 6}",1.6,0.0,,,10.1007/s10948-011-1358-3
Ca C 6,{},"{'Ca': 1, 'C': 6}",11.5,0.0,,,10.1007/s10948-011-1358-3
K Tl 1.5 C 5,{},"{'K': 1, 'Tl': 1.5, 'C': 5}",2.7,0.0,,,10.1007/s10948-011-1358-3
Sb 2 Te 3,{},"{'Sb': 2, 'Te': 3}",3.0,4.0,,,10.1038/srep02016
Bi 2 Se 3,{},"{'Bi': 2, 'Se': 3}",3.8,0.0,,,10.1038/srep02016
La F e As O 1-x F x,"{'x': [], 'e': []}",,26.0,0.0,,,10.1209/0295-5075/88/17009
Fe 1+x Se,{'x': []},,30.0,0.0,,,10.1103/physrevb.80.092507
Fe 1.02 Se,{},"{'Fe': 1.02, 'Se': 1}",7.0,0.0,,,10.1103/physrevb.80.092507
Fe 1+x Se,{'x': []},,8.0,0.0,,,10.1103/physrevb.80.092507
I B S C Ba 2 Ti 2 Fe 2 As 4 O,{},"{'I': 1, 'B': 1, 'S': 1, 'C': 1, 'Ba': 2, 'Ti': 2, 'Fe': 2, 'As': 4, 'O': 1}",21.5,0.0,,,10.1103/physrevlett.113.266407
Ba 2 Ti 2 Fe 2 As 4 O,{},"{'Ba': 2, 'Ti': 2, 'Fe': 2, 'As': 4, 'O': 1}",21.5,0.0,,,10.1103/physrevlett.113.266407
Pb,{},{'Pb': 1},7.2,0.0,,,10.1088/0953-2048/29/11/115004
Sn,{},{'Sn': 1},4.04,0.0,,,10.1088/0953-2048/29/11/115004
Li Fe As,{},"{'Li': 1, 'Fe': 1, 'As': 1}",17.0,0.0,single crystals,,10.1134/s0021364013240120
Li Fe As,{},"{'Li': 1, 'Fe': 1, 'As': 1}",18.0,0.0,,,10.1103/physrevb.88.174516
Nd Fe As O 0.9 F 0.1,{},"{'Nd': 1, 'Fe': 1, 'As': 1, 'O': 0.9, 'F': 0.1}",51.0,0.0,,,10.1088/0953-2048/22/1/014003
Li Fe As,{},"{'Li': 1, 'Fe': 1, 'As': 1}",3.8,0.0,,,10.1088/0953-2048/22/1/014004
Ba 1-x K x Fe 2 As 2,{'x': []},,32.0,0.0,,,10.1088/0953-2048/22/1/014004
Cs Fe 2 As 2,{},"{'Cs': 1, 'Fe': 2, 'As': 2}",18.0,0.0,,,10.1088/0953-2048/22/1/014004
La H 10,{},"{'La': 1, 'H': 10}",250.0,218.0,,,
Y H 6,{},"{'Y': 1, 'H': 6}",203.0,237.0,,,
Bi 2 Sr 2 Ca Cu 2 O 8,{},"{'Bi': 2, 'Sr': 2, 'Ca': 1, 'Cu': 2, 'O': 8}",91.0,0.0,Single crystals,,10.1103/physrevb.91.085109
Bi 1.76 Pb 0.35 Sr 1.89 Cu O 6+δ,{'δ': []},,5.0,0.0,,,10.1103/physrevb.91.085109
Bi 2 Sr 2 Ca Cu 2 O 8+δ,{'δ': []},,84.2,0.0,,,10.1155/2010/393526
Bi Sr 2 Ca 1-y Pr y Cu 2 O 8,{'y': []},,85.4,0.0,,,10.1155/2010/393526
Y Ba 2 Cu 3 O 7-δ,{'δ': []},,92.9,0.0,,,10.1155/2010/393526
Y Ba 2 (Cu 1-y Zn y) 3 O 7-δ,"{'δ': [], 'y': []}",,92.5,0.0,,,10.1155/2010/393526
Hg Ba 2 Cu O 4+δ,{'δ': []},,95.6,0.0,,,10.1155/2010/393526
La 2-x Sr x Cu O 4,{'x': []},,37.0,0.0,,,10.1155/2010/393526
Y 1-y Pr y Ba 2 Cu 3 O 7-δ,"{'δ': [], 'y': []}",,91.0,0.0,,,10.1155/2010/393526
Y Ba 2 (Cu 1-y Fe y) 3 O 7-δ,"{'δ': [], 'y': []}",,92.5,0.0,,,10.1155/2010/393526
Hg Ba 2 Ca 4 Cu 5 O 12+δ,{'δ': []},,72.0,0.0,,,10.1103/physrevlett.96.087001
Ca Fe 2 As 2,{},"{'Ca': 1, 'Fe': 2, 'As': 2}",12.0,0.0,,,10.1002/pssb.201600164
Fe Se,{},"{'Fe': 1, 'Se': 1}",46.0,0.0,,,10.1002/pssb.201600164
La Fe As O 1-x F x,{'x': []},,26.0,0.0,,,10.1002/pssb.201600164
Bi 2 Sr 2 Ca Cu 2 O 8,{},"{'Bi': 2, 'Sr': 2, 'Ca': 1, 'Cu': 2, 'O': 8}",64.0,0.0,,,10.1088/0034-4885/75/5/052501
Y Ba 2 Cu 3 O 7,{},"{'Y': 1, 'Ba': 2, 'Cu': 3, 'O': 7}",89.0,0.0,,,
Sr Ni 2 As 2,{},"{'Sr': 1, 'Ni': 2, 'As': 2}",0.6,0.0,,,10.1016/j.physb.2010.04.039
Sr Pd 2 Ge 2,{},"{'Sr': 1, 'Pd': 2, 'Ge': 2}",3.0,0.0,,,10.1016/j.physb.2010.04.039
Ca Fe 2 As 2,{},"{'Ca': 1, 'Fe': 2, 'As': 2}",38.0,0.0,,,10.1016/j.physb.2010.04.039
Sr Fe 2 As 2,{},"{'Sr': 1, 'Fe': 2, 'As': 2}",38.0,0.0,,,10.1016/j.physb.2010.04.039
Ba Fe 2 As 2,{},"{'Ba': 1, 'Fe': 2, 'As': 2}",38.0,0.0,,,10.1016/j.physb.2010.04.039
Ca Fe As,{},"{'Ca': 1, 'Fe': 1, 'As': 1}",27.0,0.0,,,10.1016/j.physb.2010.04.039