Material,Substitutions,Composition,Tc (K),Pressure (GPa),Shape,Substrate,DOI
Sn Se 2,{},"{'Sn': 1, 'Se': 2}",3.9,0.0,,,10.1021/acs.nanolett.7b05157
Mg B 2,{},"{'Mg': 1, 'B': 2}",38.7,0.0,,,10.1209/epl/i2002-00415-5
C 60,{},{'C': 60},52.0,0.0,,,10.1016/s0379-6779(02)00246-1
Fe Se,{},"{'Fe': 1, 'Se': 1}",45.0,0.0,,,10.1088/0953-8984/26/25/253203
Ba 1-x K x Bi O 3,{'x': []},,25.0,0.0,,,10.1088/0953-8984/26/25/253203
K x Fe 2-y Se 2,"{'x': [], 'y': []}",,32.0,0.0,,,10.1088/0953-8984/26/25/253203
Rb x Fe 2-y Se 2,"{'x': [], 'y': []}",,32.0,0.0,,,10.1088/0953-8984/26/25/253203
Cs x Fe 2-y Se 2,"{'x': [], 'y': []}",,32.0,0.0,,,10.1088/0953-8984/26/25/253203
La Fe P O,{},"{'La': 1, 'Fe': 1, 'P': 1, 'O': 1}",4.0,0.0,,,10.1088/0953-8984/26/25/253203
Sm Fe As O 1-x F x,{'x': []},,55.0,0.0,,,10.1088/0953-8984/26/25/253203
Ba 1-x K x Fe 2 As 2,{'x': []},,30.0,0.0,,,10.1088/0953-8984/26/25/253203
Bi 2 Sr 2 Ca Cu 2 O x,{'x': []},,90.0,0.0,,,10.1134/s1063776113110125
Nd Fe As O 1-y,{'y': []},,54.0,0.0,,,10.1063/1.4752092
Ba 1-x K x Fe 2 As 2,{'x': []},,38.0,0.0,,,10.1063/1.4752092
Eu Fe 2 (As 1-x P x) 2,{'x': []},,26.0,0.0,,,10.1063/1.4752092
La O 1-x F x Fe As,{'x': []},,26.0,0.0,,,10.1063/1.4752092
La O 1-x F x Fe As,{'x': []},,54.0,0.0,,,10.1063/1.4752092
Ca Fe 2 As 2,{},"{'Ca': 1, 'Fe': 2, 'As': 2}",10.0,0.0,,,10.1063/1.4752092
Ba 1-x Na x Fe 2 As 2,{'x': []},,34.0,0.0,,,10.1063/1.4752092
K Fe 2 As 2,{},"{'K': 1, 'Fe': 2, 'As': 2}",3.0,0.0,,,10.1063/1.4752092
Ba Fe 2 (As 1-x P x) 2,{'x': []},,30.0,0.0,,,10.1063/1.4752092
K y Fe 2-x Se 2,"{'x': [], 'y': []}",,40.0,0.0,,,10.1021/ja511292f
(Li 1-x Fe x) O H Fe Se,{'x': []},,40.0,0.0,,,10.1021/ja511292f
(Li 0.8 Fe 0.2) O H Fe Se,{},"{'Li': 0.8, 'Fe': 1.2, 'O': 1, 'H': 1, 'Se': 1}",40.0,0.0,,,10.1021/ja511292f
La 1.85 Sr 0.15 Cu O 4,{},"{'La': 1.85, 'Sr': 0.15, 'Cu': 1, 'O': 4}",40.0,0.0,,,10.1103/physrevb.64.012513
La 1.85 Sr 0.15 Cu O 4,{},"{'La': 1.85, 'Sr': 0.15, 'Cu': 1, 'O': 4}",90.0,0.0,,,10.1103/physrevb.64.012513
Ru Sr 2 Y Cu 2 O 8,{},"{'Ru': 1, 'Sr': 2, 'Y': 1, 'Cu': 2, 'O': 8}",23.0,0.0,,,10.1016/s0921-4534(01)01204-7
Ru Sr 2 Gd Cu 2 O 8,{},"{'Ru': 1, 'Sr': 2, 'Gd': 1, 'Cu': 2, 'O': 8}",45.0,0.0,,,10.1016/s0921-4534(01)01204-7
Ru Sr 2 Eu Cu 2 O 8,{},"{'Ru': 1, 'Sr': 2, 'Eu': 1, 'Cu': 2, 'O': 8}",32.0,0.0,,,10.1016/s0921-4534(01)01204-7
Tl 2 Ba 2 Cu O 6+δ,{'δ': []},,90.0,0.0,,,10.1038/414711a
Bi 2 Sr 2 Ca Cu 2 O 8,{},"{'Bi': 2, 'Sr': 2, 'Ca': 1, 'Cu': 2, 'O': 8}",74.0,0.0,crystal,,10.1103/physrevb.81.224518
Ba 0.6 K 0.4 Fe 2 As 2,{},"{'Ba': 0.6, 'K': 0.4, 'Fe': 2, 'As': 2}",37.0,0.0,,,10.1103/physrevb.86.144515
Ba 0.6 K 0.4 Fe 2 As 2,{},"{'Ba': 0.6, 'K': 0.4, 'Fe': 2, 'As': 2}",37.0,0.0,Single crystals,,10.1103/physrevb.86.144515
K 2 Cr 3 As 3,{},"{'K': 2, 'Cr': 3, 'As': 3}",6.1,0.0,,,10.1103/physrevb.92.174501
Al,{},{'Al': 1},4.5,0.0,,,10.1063/1.1376411
Al,{},{'Al': 1},1.18,0.0,,,10.1063/1.1376411
Mg Al 2 O 4,{},"{'Mg': 1, 'Al': 2, 'O': 4}",10.8,0.0,,,10.1016/j.physc.2009.05.009
Nb B 2,{},"{'Nb': 1, 'B': 2}",3.87,0.0,,,
Ta B 2,{},"{'Ta': 1, 'B': 2}",10.0,0.0,,,
Zr 0.13 Mo 0.87 B 2,{},"{'Zr': 0.13, 'Mo': 0.87, 'B': 2}",11.0,0.0,,,
Nb B 2,{},"{'Nb': 1, 'B': 2}",0.62,0.0,,,
Ta B 2,{},"{'Ta': 1, 'B': 2}",9.5,0.0,,,
Be B 2.75,{},"{'Be': 1, 'B': 2.75}",0.7,0.0,,,
Zr B 2,{},"{'Zr': 1, 'B': 2}",5.5,0.0,,,
Mg B 2,{},"{'Mg': 1, 'B': 2}",39.0,0.0,,,10.1063/1.4818400
La Fe As O,{},"{'La': 1, 'Fe': 1, 'As': 1, 'O': 1}",50.0,0.0,,,10.1103/physrevb.78.094518
Ce Fe As O,{},"{'Ce': 1, 'Fe': 1, 'As': 1, 'O': 1}",50.0,0.0,,,10.1103/physrevb.78.094518
Pr Fe As O,{},"{'Pr': 1, 'Fe': 1, 'As': 1, 'O': 1}",50.0,0.0,,,10.1103/physrevb.78.094518
Nd Fe As O,{},"{'Nd': 1, 'Fe': 1, 'As': 1, 'O': 1}",50.0,0.0,,,10.1103/physrevb.78.094518
Sm Fe As O,{},"{'Sm': 1, 'Fe': 1, 'As': 1, 'O': 1}",50.0,0.0,,,10.1103/physrevb.78.094518
Fe Se 0.88,{},"{'Fe': 1, 'Se': 0.88}",8.0,0.0,,,
Fe (Te 1-x Se x) z,"{'z': [], 'x': []}",,14.0,0.0,,,
Fe 1.01 Se,{},"{'Fe': 1.01, 'Se': 1}",37.0,9.0,,,10.1103/physrevb.81.184510
Fe 1.01 Se,{},"{'Fe': 1.01, 'Se': 1}",34.0,6.7,,,10.1103/physrevb.81.184510
Bi 2 Sr 2 Ca Cu 2 O 8,{},"{'Bi': 2, 'Sr': 2, 'Ca': 1, 'Cu': 2, 'O': 8}",85.0,0.0,,,10.1103/physrevb.57.14387
Tl 2 Ba 2 Cu O 6+δ,{'δ': []},,25.0,0.0,crystal,,10.1103/physrevb.57.14387
Bi 2 Sr 2 Cu O 6,{},"{'Bi': 2, 'Sr': 2, 'Cu': 1, 'O': 6}",15.0,0.0,thin films,,10.1103/physrevb.57.14387
C 6 Ca C 6,{},"{'C': 12, 'Ca': 1}",4.7,0.0,,,10.1021/acsnano.5b07848
C 6 Ca C 6,{},"{'C': 12, 'Ca': 1}",2.0,0.0,,,10.1021/acsnano.5b07848
C 6 Ca C 6,{},"{'C': 12, 'Ca': 1}",4.0,0.0,,,10.1021/acsnano.5b07848
C 6 Ca,{},"{'C': 6, 'Ca': 1}",11.5,0.0,,,10.1021/acsnano.5b07848
C 6 Li C 6,{},"{'C': 12, 'Li': 1}",0.8,0.0,,,10.1021/acsnano.5b07848
La Fe As O 1-x F x,{'x': []},,43.0,0.0,,,10.1103/physrevlett.111.207201
K Fe 2 As 2,{},"{'K': 1, 'Fe': 2, 'As': 2}",3.4,0.0,,,
Ni,{},{'Ni': 1},89.0,0.0,,,10.1126/science.1066974
Na Fe 2 As 2,{},"{'Na': 1, 'Fe': 2, 'As': 2}",12.0,0.0,,,
Ba Fe 2 As 2,{},"{'Ba': 1, 'Fe': 2, 'As': 2}",31.0,5.5,,,
K Fe 2 As 2,{},"{'K': 1, 'Fe': 2, 'As': 2}",38.0,0.0,,,
Ba (Fe 1-x Ni x) 2 As 2,{'x': []},,25.0,0.0,,,
Mg B 2,{},"{'Mg': 1, 'B': 2}",40.0,0.0,,,10.1103/physrevb.65.180510
Fe Se,{},"{'Fe': 1, 'Se': 1}",37.0,4.0,,,
Y Ba 2 Cu 3 O 6.95,{},"{'Y': 1, 'Ba': 2, 'Cu': 3, 'O': 6.95}",92.0,0.0,,,10.1016/j.physc.2005.12.066
La Ni C 2,{},"{'La': 1, 'Ni': 1, 'C': 2}",2.7,0.0,,,10.1103/physrevb.94.134517
Y Ba 2 Cu 3 O 7-x,{'x': [0.07]},"{'Y': 1, 'Ba': 2, 'Cu': 3, 'O': 6.93}",92.0,0.0,,,10.1103/physrevlett.92.067006
Y Ba 2 Cu 3 O 7-x,{'x': [0.07]},"{'Y': 1, 'Ba': 2, 'Cu': 3, 'O': 6.93}",92.0,0.0,crystal,,10.1103/physrevlett.92.067006
Al,{},{'Al': 1},1.69,0.0,,,10.1063/1.1328362
Al,{},{'Al': 1},1.18,0.0,,,10.1063/1.1328362
La Fe As O,{},"{'La': 1, 'Fe': 1, 'As': 1, 'O': 1}",15.0,0.0,,,
La Fe As O 1-x F x,{'x': []},,0.5,0.0,,,
La 0.87 Ca 0.13 Fe P O,{},"{'La': 0.87, 'Ca': 0.13, 'Fe': 1, 'P': 1, 'O': 1}",5.4,0.0,,,
La Fe As O 0.89 F 0.11,{},"{'La': 1, 'Fe': 1, 'As': 1, 'O': 0.89, 'F': 0.11}",26.0,0.0,,,
Mo S 2,{},"{'Mo': 1, 'S': 2}",10.0,0.0,thin films,,10.1103/physrevlett.113.097001
(Bi Pb) 2 (Sr La) 2 Cu O 6+δ,{'δ': []},,17.0,0.0,,,10.1103/physrevb.98.144507
Sr 2 Ru O 4,{},"{'Sr': 2, 'Ru': 1, 'O': 4}",1.5,0.0,,,10.1088/1367-2630/11/9/093004
Ba Pt 2 As 2,{},"{'Ba': 1, 'Pt': 2, 'As': 2}",3.8,0.0,,,10.1103/physrevb.94.184506
Sr Pt 2 As 2,{},"{'Sr': 1, 'Pt': 2, 'As': 2}",5.2,0.0,,,10.1103/physrevb.94.184506
Li Fe As,{},"{'Li': 1, 'Fe': 1, 'As': 1}",18.0,0.0,,,10.1140/epjb/e2012-30164-5
Ta Se 2,{},"{'Ta': 1, 'Se': 2}",0.14,0.0,,,10.1038/srep24068
Pd x Ta Se 2,{'x': []},,3.2,0.0,single crystals,,10.1038/srep24068
Pd x Ta Se 2,{'x': []},,3.2,0.0,single crystal,,10.1038/srep24068
La O Fe P,{},"{'La': 1, 'O': 1, 'Fe': 1, 'P': 1}",5.0,0.0,,,10.1209/0295-5075/86/57007
La O Co As,{},"{'La': 1, 'O': 1, 'Co': 1, 'As': 1}",66.0,0.0,,,10.1209/0295-5075/86/57007
Ba 0.6 K 0.4 Fe 2 As 2,{},"{'Ba': 0.6, 'K': 0.4, 'Fe': 2, 'As': 2}",38.0,0.0,,,10.1103/physrevb.80.174424
Eu 0.5 K 0.5 Fe 2 As 2,{},"{'Eu': 0.5, 'K': 0.5, 'Fe': 2, 'As': 2}",34.7,0.0,,,10.1103/physrevb.80.174424
Eu 0.7 Na 0.3 Fe 2 As 2,{},"{'Eu': 0.7, 'Na': 0.3, 'Fe': 2, 'As': 2}",31.0,0.0,,,10.1103/physrevb.80.174424
La O 1-x F x Fe As,{'x': []},,26.0,0.0,,,10.1209/0295-5075/83/57001
Pr O 0.89 F 0.11 Fe As,{},"{'Pr': 1, 'O': 0.89, 'F': 0.11, 'Fe': 1, 'As': 1}",45.0,0.0,,,10.1209/0295-5075/83/57001
Mg B 2,{},"{'Mg': 1, 'B': 2}",39.0,0.0,,,10.1209/0295-5075/83/57001
Mg B 2,{},"{'Mg': 1, 'B': 2}",39.0,0.0,,,10.1016/0375-9601(87)90384-7
Pr Fe As O 1-x F x,{'x': []},,24.0,0.0,crystals,,10.1088/0953-2048/23/4/043001
Li Fe As,{},"{'Li': 1, 'Fe': 1, 'As': 1}",18.0,0.0,,,10.1016/j.physc.2009.03.041
(La Sr) 2 Cu O 4,{},"{'La': 2, 'Sr': 2, 'Cu': 1, 'O': 4}",40.0,0.0,,,10.1016/j.physc.2009.03.041
Tl Ba 2 Ca 2 Cu 3 O 9,{},"{'Tl': 1, 'Ba': 2, 'Ca': 2, 'Cu': 3, 'O': 9}",125.0,0.0,,,10.1016/j.physc.2009.03.041
Hg Ba 2 Ca 2 Cu 3 O 8,{},"{'Hg': 1, 'Ba': 2, 'Ca': 2, 'Cu': 3, 'O': 8}",135.0,0.0,,,10.1016/j.physc.2009.03.041
Y Ba 2 Cu 3 O 7,{},"{'Y': 1, 'Ba': 2, 'Cu': 3, 'O': 7}",90.0,0.0,,,10.1016/j.physc.2009.03.041
Fe As,{},"{'Fe': 1, 'As': 1}",8.0,0.0,,,10.1016/j.physc.2009.03.041
Bi 2 Sr 2 Ca 2 Cu 3 O 10,{},"{'Bi': 2, 'Sr': 2, 'Ca': 2, 'Cu': 3, 'O': 10}",105.0,0.0,,,10.1016/j.physc.2009.03.041
Y Ba 2 Cu 3 O 7,{},"{'Y': 1, 'Ba': 2, 'Cu': 3, 'O': 7}",90.0,0.0,,,10.1103/physrevlett.93.107003
Fe 1.03 Se 0.4 Te 0.6,{},"{'Fe': 1.03, 'Se': 0.4, 'Te': 0.6}",14.6,0.0,single crystals,,
Ba Fe 1.84 Co 0.16 As 2,{},"{'Ba': 1, 'Fe': 1.84, 'Co': 0.16, 'As': 2}",22.0,0.0,,,
Bi (Pb),{},"{'Bi': 1, 'Pb': 1}",91.0,0.0,,,
Bi (Pb),{},"{'Bi': 1, 'Pb': 1}",8.8,0.0,,,
Y Ba 2 Cu 3 O 7-y,{'y': []},,90.0,0.0,,,
Y Ni 2 B 2 C,{},"{'Y': 1, 'Ni': 2, 'B': 2, 'C': 1}",15.5,0.0,,,10.1088/1742-6596/150/5/052177
H 3 S,{},"{'H': 3, 'S': 1}",203.0,155.0,,,10.1080/01411594.2012.658051
H 3 S,{},"{'H': 3, 'S': 1}",203.0,170.0,,,10.1080/01411594.2012.658051
Y Pt Bi,{},"{'Y': 1, 'Pt': 1, 'Bi': 1}",0.77,0.0,,,10.1103/physrevb.96.214514
Dy Pd Bi,{},"{'Dy': 1, 'Pd': 1, 'Bi': 1}",1.0,0.0,,,10.1103/physrevb.96.214514
Mg B 2,{},"{'Mg': 1, 'B': 2}",40.0,0.0,,,10.1063/1.1629148
Mg B 2,{},"{'Mg': 1, 'B': 2}",34.0,0.0,,,10.1063/1.1629148
Sr Ti O 3,{},"{'Sr': 1, 'Ti': 1, 'O': 3}",105.0,0.0,,,10.1103/physrevb.66.014113
In O x,{'x': []},,2.5,0.0,films,,10.1134/1.1364540
La 2-x Sr x Cu O 4,{'x': []},,50.0,0.0,,,10.1002/chin.200441225
Tl 2 Ba 2 Cu O 6+δ,{'δ': []},,90.0,0.0,,,10.1002/chin.200441225
Bi 2 Sr 2 Ca Cu 2 O 8+δ,{'δ': []},,91.0,0.0,,,10.1002/chin.200441225
Y Ba 2 Cu 3 O 6+x,{'x': []},,93.0,0.0,,,10.1002/chin.200441225
Y Ba 2 (Cu 1-y Ni y) 3 O 7,{'y': []},,80.0,0.0,,,10.1002/chin.200441225
La 2-x Sr x Cu O 4,{'x': []},,40.0,0.0,,,10.1002/chin.200441225
Er Ni 2 B 2 C,{},"{'Er': 1, 'Ni': 2, 'B': 2, 'C': 1}",11.0,0.0,,,10.1088/0953-2048/27/12/124001
Nb,{},{'Nb': 1},7.1,0.0,film,,10.1103/physrevb.59.4455
Nb Se 2,{},"{'Nb': 1, 'Se': 2}",3.35,0.0,,,
Sc Rh P,{},"{'Sc': 1, 'Rh': 1, 'P': 1}",2.0,0.0,,,10.7566/jpsj.85.094706
Sc Ir P,{},"{'Sc': 1, 'Ir': 1, 'P': 1}",2.0,0.0,,,10.7566/jpsj.85.094706
Zr Ru P,{},"{'Zr': 1, 'Ru': 1, 'P': 1}",12.0,0.0,,,10.7566/jpsj.85.094706
Sc Ir P,{},"{'Sc': 1, 'Ir': 1, 'P': 1}",3.4,0.0,,,10.7566/jpsj.85.094706
Sc Rh P,{},"{'Sc': 1, 'Rh': 1, 'P': 1}",0.5,0.0,,,10.7566/jpsj.85.094706
Sc Rh P,{},"{'Sc': 1, 'Rh': 1, 'P': 1}",1.8,0.0,,,10.7566/jpsj.85.094706
K x Fe 2-y Se 2,"{'x': [], 'y': []}",,30.0,0.0,,,10.1103/physrevb.88.184413
Na 2 Ti 2 Sb 2 O,{},"{'Na': 2, 'Ti': 2, 'Sb': 2, 'O': 1}",7.0,0.0,,,10.1038/srep09515
Fe Se,{},"{'Fe': 1, 'Se': 1}",9.4,0.0,,,10.1103/physrevlett.117.097003
Fe Se,{},"{'Fe': 1, 'Se': 1}",100.0,0.0,,,10.1103/physrevlett.117.097003
Y 2 Pd Si 3,{},"{'Y': 2, 'Pd': 1, 'Si': 3}",7.0,0.0,,,
Mg C Ni 3,{},"{'Mg': 1, 'C': 1, 'Ni': 3}",7.0,0.0,,,10.1103/physrevb.65.214518
La Fe As O 1-x F x,{'x': []},,26.0,0.0,,,10.1103/physrevb.82.060514
Ru Sr 2 Gd 1-x La x Cu 2 O 8,{'x': []},,5.0,0.0,,,10.1103/physrevb.71.014502
Ta B 2,{},"{'Ta': 1, 'B': 2}",9.5,0.0,,,10.1063/1.1509145
Mg B 2,{},"{'Mg': 1, 'B': 2}",40.0,0.0,,,10.1063/1.1509145
Cs V 3 Sb 5,{},"{'Cs': 1, 'V': 3, 'Sb': 5}",2.5,0.0,,,
Cs V 3 Sb 5,{},"{'Cs': 1, 'V': 3, 'Sb': 5}",2.5,0.0,single crystal,,
Cs V 3 Sb 5,{},"{'Cs': 1, 'V': 3, 'Sb': 5}",8.0,2.0,,,
P c2,{'c': []},,8.0,0.0,,,
Sn 1-x In x Te,{'x': [0.5]},"{'Sn': 0.5, 'In': 0.5, 'Te': 1}",4.5,0.0,,,10.1103/physrevb.101.094513
Sn Te,{},"{'Sn': 1, 'Te': 1}",0.3,0.0,,,10.1103/physrevb.101.094513
Bi 2 Sr 2 Ca Cu 2 O 8,{},"{'Bi': 2, 'Sr': 2, 'Ca': 1, 'Cu': 2, 'O': 8}",87.0,0.0,,,10.1142/s0217984900000525
Bi 2 Sr 2 Ca Cu 2 O 8,{},"{'Bi': 2, 'Sr': 2, 'Ca': 1, 'Cu': 2, 'O': 8}",86.0,0.0,,,10.1142/s0217984900000525
O 2,{},{'O': 2},79.0,0.0,,,10.1142/s0217984900000525
Ba 1-x K x Fe 2 As 2,{'x': [0.19]},"{'Ba': 0.81, 'K': 0.19, 'Fe': 2, 'As': 2}",14.0,0.0,single crystals,,10.1103/physrevb.90.104514
(Ba 1-x K x) Fe 2 As 2,{'x': []},,40.0,0.0,,,10.1103/physrevb.90.104514
Y Ni 2 B 2 C,{},"{'Y': 1, 'Ni': 2, 'B': 2, 'C': 1}",15.4,0.0,single crystals,,10.1007/s10909-007-9327-8
Nd Fe As O 1-x F x,{'x': [0.18]},"{'Nd': 1, 'Fe': 1, 'As': 1, 'O': 0.8200000000000001, 'F': 0.18}",50.0,0.0,single crystals,,10.1103/physrevb.78.134508
Nd Fe As O 0.82 F 0.18,{},"{'Nd': 1, 'Fe': 1, 'As': 1, 'O': 0.82, 'F': 0.18}",50.0,0.0,,,10.1103/physrevb.78.134508
La 1-x Sr x Fe As O 3,{'x': []},,25.0,0.0,,,10.1103/physrevb.78.134508
Fe Se 1-δ,{'δ': []},,8.0,0.0,,,10.1103/physrevb.82.184506
Mg B 2,{},"{'Mg': 1, 'B': 2}",39.0,0.0,,,10.1140/epjb/e2007-00156-9
Ca 3 Rh 4 Sn 13,{},"{'Ca': 3, 'Rh': 4, 'Sn': 13}",4.6,0.0,,,10.1103/physrevb.93.245126
Ca 3 Rh 4 Sn 13,{},"{'Ca': 3, 'Rh': 4, 'Sn': 13}",110.0,0.0,,,10.1103/physrevb.93.245126
Ca 3 Rh 4 Sn 13,{},"{'Ca': 3, 'Rh': 4, 'Sn': 13}",8.4,0.0,,,10.1103/physrevb.93.245126
Ca 3-x Ce x Rh 4 Sn 13,{'x': []},,4.9,0.0,,,10.1103/physrevb.93.245126
Ca 3 Rh 4 Sn 13,{},"{'Ca': 3, 'Rh': 4, 'Sn': 13}",4.8,0.0,,,10.1103/physrevb.93.245126
Ca 3 Rh 4 Sn 13,{},"{'Ca': 3, 'Rh': 4, 'Sn': 13}",8.0,0.0,,,10.1103/physrevb.93.245126
Ca 3 Rh 4 Sn 13,{},"{'Ca': 3, 'Rh': 4, 'Sn': 13}",0.1,0.0,,,10.1103/physrevb.93.245126
Ca 3-x Ce x Rh 4 Sn 13,{'x': []},,4.8,0.0,,,10.1103/physrevb.93.245126
Ca 2.8 Ce 0.2 Rh 4 Sn 13,{},"{'Ca': 2.8, 'Ce': 0.2, 'Rh': 4, 'Sn': 13}",8.0,0.0,,,10.1103/physrevb.93.245126
Ca 3 Rh 4 Sn 13,{},"{'Ca': 3, 'Rh': 4, 'Sn': 13}",4.9,0.0,,,10.1103/physrevb.93.245126
Na 1-δ Fe As,{'δ': []},,23.0,0.0,,,10.1103/physrevb.80.020504
Dy Rh 4 B 4 Si 0.2,{},"{'Dy': 1, 'Rh': 4, 'B': 4, 'Si': 0.2}",4.4,0.0,,,10.1016/j.jallcom.2009.04.040
Y Rh 4 B 4,{},"{'Y': 1, 'Rh': 4, 'B': 4}",10.0,0.0,,,10.1016/j.jallcom.2009.04.040
Lu Ru 4 B 4,{},"{'Lu': 1, 'Ru': 4, 'B': 4}",1.8,0.0,,,10.1016/j.jallcom.2009.04.040
Dy Rh 4 B 4 Si 0.2,{},"{'Dy': 1, 'Rh': 4, 'B': 4, 'Si': 0.2}",4.5,0.0,,,10.1016/j.jallcom.2009.04.040
Dy Rh 4 B 4 Si 0.2,{},"{'Dy': 1, 'Rh': 4, 'B': 4, 'Si': 0.2}",2.0,0.0,,,10.1016/j.jallcom.2009.04.040
Fe Se,{},"{'Fe': 1, 'Se': 1}",8.0,0.0,,,10.1103/physrevb.91.144503
Fe Te 0.55 Se 0.45,{},"{'Fe': 1, 'Te': 0.55, 'Se': 0.45}",14.0,0.0,,,10.1103/physrevb.91.144503
Fe Te 0.55 Se 0.45,{},"{'Fe': 1, 'Te': 0.55, 'Se': 0.45}",14.0,0.0,single crystal,,10.1103/physrevb.91.144503
Yb,{},{'Yb': 1},4.6,179.0,,,10.1103/physrevlett.121.037004
Pb Mo 6 S 8,{},"{'Pb': 1, 'Mo': 6, 'S': 8}",15.0,0.0,,,10.1103/physrevmaterials.2.114801
Ca Y H 12,{},"{'Ca': 1, 'Y': 1, 'H': 12}",258.0,170.0,,,10.1016/j.physrep.2020.02.003
La H 10,{},"{'La': 1, 'H': 10}",200.0,170.0,,,10.1016/j.physrep.2020.02.003
Pd Cu H x,{'x': []},,16.6,0.0,,,10.1016/j.physrep.2020.02.003
Y H 6,{},"{'Y': 1, 'H': 6}",220.0,170.0,,,10.1016/j.physrep.2020.02.003
H 3 S,{},"{'H': 3, 'S': 1}",160.0,130.0,,,10.1016/j.physrep.2020.02.003
La H x,{'x': []},,215.0,170.0,,,10.1016/j.physrep.2020.02.003
Mg B 2,{},"{'Mg': 1, 'B': 2}",39.0,0.0,,,10.1016/j.physrep.2020.02.003
W O 3,{},"{'W': 1, 'O': 3}",120.0,0.0,,,10.1016/j.physrep.2020.02.003
Cs 3 C 60,{},"{'Cs': 3, 'C': 60}",40.0,0.0,,,10.1016/j.physrep.2020.02.003
Ca C 6,{},"{'Ca': 1, 'C': 6}",11.5,0.0,,,10.1016/j.physrep.2020.02.003
H 3 S,{},"{'H': 3, 'S': 1}",203.0,170.0,,,10.1016/j.physrep.2020.02.003
Hf V x H x,{'x': []},,4.8,0.0,,,10.1016/j.physrep.2020.02.003
Pd H,{},"{'Pd': 1, 'H': 1}",40.0,0.0,,,10.1016/j.physrep.2020.02.003
La H 10,{},"{'La': 1, 'H': 10}",250.0,170.0,,,10.1016/j.physrep.2020.02.003
H 3 S,{},"{'H': 3, 'S': 1}",200.0,170.0,,,10.1016/j.physrep.2020.02.003
S,{},{'S': 1},20.0,0.0,,,10.1016/j.physrep.2020.02.003
H x S,{'x': []},,203.0,170.0,,,10.1016/j.physrep.2020.02.003
P H 3,{},"{'P': 1, 'H': 3}",100.0,0.0,,,10.1016/j.physrep.2020.02.003
Nb,{},{'Nb': 1},9.3,0.0,,,10.1016/j.physrep.2020.02.003
La H 10,{},"{'La': 1, 'H': 10}",280.0,210.0,,,10.1016/j.physrep.2020.02.003
Yb C 6,{},"{'Yb': 1, 'C': 6}",11.5,0.0,,,10.1016/j.physrep.2020.02.003
La H 10,{},"{'La': 1, 'H': 10}",234.0,170.0,,,10.1016/j.physrep.2020.02.003
Y H 9,{},"{'Y': 1, 'H': 9}",240.0,170.0,,,10.1016/j.physrep.2020.02.003
H 2 S,{},"{'H': 2, 'S': 1}",50.0,0.0,,,10.1016/j.physrep.2020.02.003
La H x,{'x': []},,250.0,170.0,,,10.1016/j.physrep.2020.02.003
S 0.925 P 0.075 H 3,{},"{'S': 0.925, 'P': 0.075, 'H': 3}",280.0,250.0,,,10.1016/j.physrep.2020.02.003
Ba Re H 9,{},"{'Ba': 1, 'Re': 1, 'H': 9}",7.0,0.0,,,10.1016/j.physrep.2020.02.003
Nb Ge,{},"{'Nb': 1, 'Ge': 1}",19.0,0.0,,,10.1016/j.physrep.2020.02.003
Bi 2 Sr 2 Ca Cu 2 O 8+δ,{'δ': []},,83.0,0.0,,,10.1103/physrevlett.86.1610
Bi 2 Sr 2 Ca Cu 2 O 8+δ,{'δ': []},,91.0,0.0,,,10.1103/physrevlett.86.1610
Y Ba 2 Cu 3 O 7,{},"{'Y': 1, 'Ba': 2, 'Cu': 3, 'O': 7}",80.0,0.0,,,10.1103/physrevlett.86.1610
Ce Ir In 5,{},"{'Ce': 1, 'Ir': 1, 'In': 5}",0.4,0.0,,,10.1088/0953-8984/15/28/329
Ce Co In 5,{},"{'Ce': 1, 'Co': 1, 'In': 5}",2.3,0.0,,,10.1088/0953-8984/15/28/329
Ba (Fe x Co 1-x) 2 As 2,{'x': []},,22.6,0.0,,,10.1103/physrevb.83.092508
Ba Fe Co As,{},"{'Ba': 1, 'Fe': 1, 'Co': 1, 'As': 1}",22.6,0.0,,,10.1103/physrevb.83.092508
C Cs,{},"{'C': 1, 'Cs': 1}",77.0,0.0,,,10.1088/0953-2048/24/3/035001
Bi (Y),{},"{'Bi': 1, 'Y': 1}",95.0,0.0,single crystals,,10.1103/physrevb.91.224508
Ti N,{},"{'Ti': 1, 'N': 1}",4.68,0.0,film,,10.1063/1.4771995
Ti N,{},"{'Ti': 1, 'N': 1}",4.8,0.0,films,,10.1063/1.4771995
Ti N,{},"{'Ti': 1, 'N': 1}",6.0,0.0,single crystal,,10.1063/1.4771995
Tl 2 Ba 2 Cu O 6,{},"{'Tl': 2, 'Ba': 2, 'Cu': 1, 'O': 6}",80.0,0.0,,,10.1007/978-1-4020-3463-3_8
Tl 2 Ba 2 Cu O 6,{},"{'Tl': 2, 'Ba': 2, 'Cu': 1, 'O': 6}",85.0,0.0,,,10.1007/978-1-4020-3463-3_8
Bi 2 Sr 2 Ca Cu 2 O 8,{},"{'Bi': 2, 'Sr': 2, 'Ca': 1, 'Cu': 2, 'O': 8}",88.0,0.0,,,10.1007/978-1-4020-3463-3_8
Fe Se,{},"{'Fe': 1, 'Se': 1}",37.0,0.0,,,10.1103/physrevb.100.064515
Fe Se,{},"{'Fe': 1, 'Se': 1}",100.0,0.0,monolayer films,SrTiO 3,10.1103/physrevb.100.064515
La Fe As O 1-x F x,{'x': []},,12.0,0.0,,,10.1063/1.3268435
Ca Fe 2 As 2,{},"{'Ca': 1, 'Fe': 2, 'As': 2}",38.0,0.0,,,10.1063/1.3268435
Sr Fe 2 As 2,{},"{'Sr': 1, 'Fe': 2, 'As': 2}",38.0,0.0,,,10.1063/1.3268435
Ba Fe 2 As 2,{},"{'Ba': 1, 'Fe': 2, 'As': 2}",38.0,0.0,,,10.1063/1.3268435
Eu Fe 2 As 2,{},"{'Eu': 1, 'Fe': 2, 'As': 2}",38.0,0.0,,,10.1063/1.3268435
La Fe As O 0.91 F 0.09,{},"{'La': 1, 'Fe': 1, 'As': 1, 'O': 0.91, 'F': 0.09}",10.0,0.0,,,10.1063/1.3268435
La Fe As O 1-x F x,{'x': []},,55.0,0.0,,,10.1063/1.3268435
Ca Al Si,{},"{'Ca': 1, 'Al': 1, 'Si': 1}",8.0,0.0,,,10.1103/physrevb.74.214513
La Fe As O 0.9 F 0.1,{},"{'La': 1, 'Fe': 1, 'As': 1, 'O': 0.9, 'F': 0.1}",26.0,0.0,,,10.1103/physrevb.99.220505
Sm Fe As O 0.85 F 0.15,{},"{'Sm': 1, 'Fe': 1, 'As': 1, 'O': 0.85, 'F': 0.15}",42.0,0.0,,,10.1103/physrevb.99.220505
Nb (O H) x,{'x': [0.002]},"{'Nb': 1, 'O': 0.002, 'H': 0.002}",9.2,0.0,,,10.1103/physrevb.99.220505
Bi 2 Sr 2 Ca Cu 2 O 8,{},"{'Bi': 2, 'Sr': 2, 'Ca': 1, 'Cu': 2, 'O': 8}",74.0,0.0,,,
Fe Se,{},"{'Fe': 1, 'Se': 1}",37.0,9.0,,,10.1143/jpsj.78.083709
Mg B 2,{},"{'Mg': 1, 'B': 2}",39.0,0.0,,,10.1007/s100510170191
Mg B 2,{},"{'Mg': 1, 'B': 2}",40.0,0.0,,,10.1007/s100510170191
Si,{},{'Si': 1},0.6,0.0,,,10.1088/0953-2048/15/1/308
Mg B 2,{},"{'Mg': 1, 'B': 2}",39.0,0.0,,,10.1088/0953-2048/15/1/308
Y Ba 2 Cu 3 O 6.5,{},"{'Y': 1, 'Ba': 2, 'Cu': 3, 'O': 6.5}",52.0,0.0,crystal,,10.1103/physrevb.61.618
Y Ba 2 Cu 3 O 6.75,{},"{'Y': 1, 'Ba': 2, 'Cu': 3, 'O': 6.75}",80.0,0.0,crystal,,10.1103/physrevb.61.618
Y Ba 2 Cu 3 O 6.75,{},"{'Y': 1, 'Ba': 2, 'Cu': 3, 'O': 6.75}",80.0,0.0,crys- tal,,10.1103/physrevb.61.618
Y Ba 2 Cu 3 O 6.75,{},"{'Y': 1, 'Ba': 2, 'Cu': 3, 'O': 6.75}",80.0,0.0,,,10.1103/physrevb.61.618
Cu 0.43 Ni 0.57,{},"{'Cu': 0.43, 'Ni': 0.57}",7.0,0.0,,,10.1134/1.1405893
Fe Se,{},"{'Fe': 1, 'Se': 1}",8.3,0.0,,,10.1088/1674-1056/24/11/117402
Fe Se,{},"{'Fe': 1, 'Se': 1}",2.6,0.0,,,10.1088/1674-1056/24/11/117402
Fe Se,{},"{'Fe': 1, 'Se': 1}",38.0,0.0,film,,10.1088/1674-1056/24/11/117402
Fe Se,{},"{'Fe': 1, 'Se': 1}",9.0,0.0,,,10.1088/1674-1056/24/11/117402
Ca C 6,{},"{'Ca': 1, 'C': 6}",11.5,0.0,,,10.1016/j.physc.2007.03.426
La O 1-δ F e As,"{'δ': [], 'e': []}",,28.0,0.0,,,10.1070/pu2008v051n12abeh006820
Ba 1-x K x Fe 2 As 2,{'x': [0.4]},"{'Ba': 0.6, 'K': 0.4, 'Fe': 2, 'As': 2}",37.0,0.0,,,10.1070/pu2008v051n12abeh006820