Material,Substitutions,Composition,Tc (K),Pressure (GPa),Shape,Substrate,DOI
Ba 2 Ca 2 Cu 3 O 6 (F O) 2,{},"{'Ba': 2, 'Ca': 2, 'Cu': 3, 'O': 8, 'F': 2}",120.0,0.0,,,10.1143/jpsj.80.043706
Ba 2 Ca 4 Cu 5 O 10 (F O) 2,{},"{'Ba': 2, 'Ca': 4, 'Cu': 5, 'O': 12, 'F': 2}",52.0,0.0,,,10.1143/jpsj.80.043706
Pr Fe As O 0.9,{},"{'Pr': 1, 'Fe': 1, 'As': 1, 'O': 0.9}",35.0,0.0,single crystalline,,10.1103/physrevlett.105.267002
Nd Fe As O 0.9 F 0.1,{},"{'Nd': 1, 'Fe': 1, 'As': 1, 'O': 0.9, 'F': 0.1}",36.0,0.0,,,10.1103/physrevlett.105.267002
Ba 0.45 K 0.55 Fe 2 As 2,{},"{'Ba': 0.45, 'K': 0.55, 'Fe': 2, 'As': 2}",34.0,0.0,,,10.1103/physrevlett.105.267002
Ba 0.6 K 0.4 Fe 2 As 2,{},"{'Ba': 0.6, 'K': 0.4, 'Fe': 2, 'As': 2}",37.0,0.0,,,10.1088/0953-2048/28/6/060201
Ir Te 2,{},"{'Ir': 1, 'Te': 2}",3.1,0.0,,,10.7566/jpsj.83.033701
Fe Te 0.5 Se 0.5,{},"{'Fe': 1, 'Te': 0.5, 'Se': 0.5}",14.0,0.0,,,10.1103/physrevb.81.100513
Fe Te 0.5 Se 0.5,{},"{'Fe': 1, 'Te': 0.5, 'Se': 0.5}",14.0,0.0,single crystal,,10.1103/physrevb.81.100513
Li P H 6,{},"{'Li': 1, 'P': 1, 'H': 6}",100.0,200.0,,,
Pt Si,{},"{'Pt': 1, 'Si': 1}",0.88,0.0,,,10.1134/1.1881727
La Fe As O,{},"{'La': 1, 'Fe': 1, 'As': 1, 'O': 1}",26.0,0.0,,,10.1143/jpsj.78.023701
La Fe As O,{},"{'La': 1, 'Fe': 1, 'As': 1, 'O': 1}",43.0,0.0,,,10.1143/jpsj.78.023701
La Fe P O,{},"{'La': 1, 'Fe': 1, 'P': 1, 'O': 1}",8.8,0.8,,,10.1143/jpsj.78.023701
Mg O,{},"{'Mg': 1, 'O': 1}",21.0,0.0,,,10.1143/apex.4.013103
Hg Ba 2 Cu O 4+δ,{'δ': []},,97.0,0.0,,,10.1103/physrevb.75.054522
K 0.68 Fe 1.79 Se 2,{},"{'K': 0.68, 'Fe': 1.79, 'Se': 2}",32.0,0.0,,,10.1103/physrevb.83.140508
K x Fe 2-y Se 2,"{'x': [], 'y': []}",,30.0,0.0,,,10.1103/physrevb.83.140508
Tl x Fe 2-y Se 2,"{'x': [], 'y': []}",,30.0,0.0,,,10.1103/physrevb.83.140508
Cs x Fe 2-y Se 2,"{'x': [], 'y': []}",,30.0,0.0,,,10.1103/physrevb.83.140508
Rb x Fe 2-y Se 2,"{'x': [], 'y': []}",,30.0,0.0,,,10.1103/physrevb.83.140508
La 2-x Sr x Cu O 4,{'x': []},,40.0,0.0,,,10.1103/revmodphys.78.17
Mg B 2,{},"{'Mg': 1, 'B': 2}",39.0,0.0,,,10.1103/physrevb.66.012509
Ir 2 Ga 9,{},"{'Ir': 2, 'Ga': 9}",2.2,0.0,,,10.1143/jpsj.78.025003
Ce Co In 5,{},"{'Ce': 1, 'Co': 1, 'In': 5}",2.1,1.6,,,10.1103/physrevlett.89.157004
Pb,{},{'Pb': 1},15.0,0.0,,,10.1103/physrevlett.89.157004
Fe Se 1-x,{'x': []},,8.0,0.0,,,10.1063/1.3590753
Fe Te 1-x,{'x': []},,8.0,0.0,,,10.1063/1.3590753
La O 1-x Fe As F x,{'x': []},,26.0,0.0,,,10.1063/1.3590753
Li Fe As,{},"{'Li': 1, 'Fe': 1, 'As': 1}",18.0,0.0,,,10.1063/1.3590753
Eu As Fe O 0.85 F 0.15,{},"{'Eu': 1, 'As': 1, 'Fe': 1, 'O': 0.85, 'F': 0.15}",11.3,0.0,,,10.1063/1.3590753
Ba 1-x K x,{'x': []},,38.0,0.0,,,10.1063/1.3590753
(Ba K) Fe 2 As 2,{},"{'Ba': 1, 'K': 1, 'Fe': 2, 'As': 2}",32.0,0.0,single crystalline,,10.1063/1.3590753
Bi 2 Sr 2 Ca Cu 2 O 8,{},"{'Bi': 2, 'Sr': 2, 'Ca': 1, 'Cu': 2, 'O': 8}",4.0,0.0,crystal,,10.1088/0953-2048/23/7/075001
Bi 2 Sr 2 Ca 2 Cu 3 O 10,{},"{'Bi': 2, 'Sr': 2, 'Ca': 2, 'Cu': 3, 'O': 10}",110.0,0.0,,,10.1088/0953-2048/23/7/075001
Li Fe As,{},"{'Li': 1, 'Fe': 1, 'As': 1}",18.0,0.0,,,10.1155/2010/804343
La O Fe As,{},"{'La': 1, 'O': 1, 'Fe': 1, 'As': 1}",26.0,0.0,,,10.1155/2010/804343
Ba Fe 2 As 2,{},"{'Ba': 1, 'Fe': 2, 'As': 2}",38.0,0.0,,,10.1155/2010/804343
Re O 1-x F x Fe As,{'x': []},,50.0,0.0,,,10.1155/2010/804343
Na Fe As,{},"{'Na': 1, 'Fe': 1, 'As': 1}",9.0,0.0,,,10.1155/2010/804343
Na Fe As,{},"{'Na': 1, 'Fe': 1, 'As': 1}",1.0,0.0,,,10.1155/2010/804343
Ca 0.7 Sr 0.3 Al Si,{},"{'Ca': 0.7, 'Sr': 0.3, 'Al': 1, 'Si': 1}",6.0,0.0,,,
Sr Al Si,{},"{'Sr': 1, 'Al': 1, 'Si': 1}",4.2,0.0,,,
Ca Al Si,{},"{'Ca': 1, 'Al': 1, 'Si': 1}",1.5,0.0,,,
Sr Al Si,{},"{'Sr': 1, 'Al': 1, 'Si': 1}",4.9,0.0,,,
Ca C 6,{},"{'Ca': 1, 'C': 6}",11.0,0.0,,,
Ca Al Si,{},"{'Ca': 1, 'Al': 1, 'Si': 1}",7.7,0.0,,,
Yb C 6,{},"{'Yb': 1, 'C': 6}",6.5,8.0,,,
Ca 0.7 Sr 0.3 Al Si,{},"{'Ca': 0.7, 'Sr': 0.3, 'Al': 1, 'Si': 1}",10.0,0.0,,,
Fe Se,{},"{'Fe': 1, 'Se': 1}",50.0,0.0,,SrTiO 3,10.1002/pssb.201600153
Fe Se,{},"{'Fe': 1, 'Se': 1}",1.0,0.0,,,10.1002/pssb.201600153
(Bi Pb) 2 (Sr La) 2 Cu O 6+δ,{'δ': []},,29.0,0.0,single crystalline,,10.1103/physrevlett.101.227002
Bi 2 Sr 2 Cu O 6,{},"{'Bi': 2, 'Sr': 2, 'Cu': 1, 'O': 6}",29.0,0.0,single-crystalline,,10.1103/physrevlett.101.227002
Bi 2 Sr 2 Cu O 6,{},"{'Bi': 2, 'Sr': 2, 'Cu': 1, 'O': 6}",27.0,0.0,,,10.1103/physrevlett.101.227002
K 2 Cr 3 As 3,{},"{'K': 2, 'Cr': 3, 'As': 3}",6.1,0.0,,,10.1103/physrevb.91.220505
Cs 2 Cr 3 As 3,{},"{'Cs': 2, 'Cr': 3, 'As': 3}",2.2,0.0,,,10.1103/physrevb.91.220505
Rb 2 Cr 3 As 3,{},"{'Rb': 2, 'Cr': 3, 'As': 3}",4.8,0.0,,,10.1103/physrevb.91.220505
Hg Ba 2 Ca 2 Cu 3 O 8,{},"{'Hg': 1, 'Ba': 2, 'Ca': 2, 'Cu': 3, 'O': 8}",135.0,0.0,,,10.1103/physrevlett.97.236401
Gd 2 Ti 2 O 7,{},"{'Gd': 2, 'Ti': 2, 'O': 7}",0.97,0.0,,,10.1143/jpsj.71.599
Er 2 Ti 2 O 7,{},"{'Er': 2, 'Ti': 2, 'O': 7}",0.97,0.0,,,10.1143/jpsj.71.599
Yb 2 Ti 2 O 7,{},"{'Yb': 2, 'Ti': 2, 'O': 7}",0.97,0.0,,,10.1143/jpsj.71.599
In 0.91 Mn 0.09,{},"{'In': 0.91, 'Mn': 0.09}",55.0,0.0,,,10.1109/lechpd.2002.1146769
Th Cr 2 Si 2,{},"{'Th': 1, 'Cr': 2, 'Si': 2}",38.0,0.0,,,
Li Fe As,{},"{'Li': 1, 'Fe': 1, 'As': 1}",18.0,0.0,,,
Na V 2 O 5,{},"{'Na': 1, 'V': 2, 'O': 5}",34.0,0.0,,,10.1103/physrevb.64.241103
Tl 2 Ba 2 Cu O 6+δ,{'δ': []},,21.5,0.0,,,
Bi 2 Sr 2-x La x Cu O 6+δ,"{'δ': [], 'x': []}",,21.5,0.0,,,
Bi 2 Sr 2 Cu O 6+δ,{'δ': []},,11.5,0.0,,,
Cs Rb,{},"{'Cs': 1, 'Rb': 1}",3.3,0.0,,,10.1088/0953-8984/19/14/145283
K Os 2 O 6,{},"{'K': 1, 'Os': 2, 'O': 6}",9.6,0.0,,,10.1088/0953-8984/19/14/145283
V 3 Si,{},"{'V': 3, 'Si': 1}",17.0,0.0,,,10.1088/0953-8984/19/14/145283
Bi 2 Sr 2 Ca Cu 2 O 8,{},"{'Bi': 2, 'Sr': 2, 'Ca': 1, 'Cu': 2, 'O': 8}",87.0,0.0,,,10.1103/physrevb.63.224516
Cs 2 Mo 3 As 3,{},"{'Cs': 2, 'Mo': 3, 'As': 3}",11.5,0.0,,,10.1016/j.scib.2018.06.011
K 2 Mo 3 As 3,{},"{'K': 2, 'Mo': 3, 'As': 3}",10.4,0.0,,,10.1016/j.scib.2018.06.011
Pb Mo 6 S 8,{},"{'Pb': 1, 'Mo': 6, 'S': 8}",15.0,0.0,,,10.1016/j.scib.2018.06.011
Rb 2 Mo 3 As 3,{},"{'Rb': 2, 'Mo': 3, 'As': 3}",10.6,0.0,,,10.1016/j.scib.2018.06.011
K 2 Mo 3 As 3,{},"{'K': 2, 'Mo': 3, 'As': 3}",0.3,0.0,,,10.1016/j.scib.2018.06.011
Al,{},{'Al': 1},1.2,0.0,thin films,,10.1103/physrevapplied.11.024061
U Rh Ge,{},"{'U': 1, 'Rh': 1, 'Ge': 1}",9.5,0.0,,,10.1103/physrevb.96.094411
La Ru 2 P 2,{},"{'La': 1, 'Ru': 2, 'P': 2}",4.0,0.0,,,10.1103/physrevlett.108.257005
(Ba K) Fe 2 As 2,{},"{'Ba': 1, 'K': 1, 'Fe': 2, 'As': 2}",36.0,0.0,,,10.1103/physrevb.101.094516
Ca Fe 2 As 2,{},"{'Ca': 1, 'Fe': 2, 'As': 2}",43.0,0.0,,,10.1088/0953-2048/25/4/045007
La Fe As O,{},"{'La': 1, 'Fe': 1, 'As': 1, 'O': 1}",26.0,0.0,,,10.1088/0953-2048/25/4/045007
Ca 1-x Re x Fe 2 As 2,{'x': []},,40.0,0.0,single crystal,,10.1088/0953-2048/25/4/045007
Ca 1-x Ce x Fe 2 As 2,{'x': []},,43.0,0.0,,,10.1088/0953-2048/25/4/045007
Fe As,{},"{'Fe': 1, 'As': 1}",43.0,0.0,,,10.1088/0953-2048/25/4/045007
Ba 1-x K x Fe 2 As 2,{'x': []},,38.0,0.0,,,10.1088/0953-2048/25/4/045007
Ca Fe 2 As 2,{},"{'Ca': 1, 'Fe': 2, 'As': 2}",40.0,0.0,single crystals,,10.1088/0953-2048/25/4/045007
Ca Fe 2 As 2,{},"{'Ca': 1, 'Fe': 2, 'As': 2}",45.0,0.0,,,10.1088/0953-2048/25/4/045007
Ca 1-x Pr x Fe 2 As 2,{'x': []},,43.5,0.0,,,10.1088/0953-2048/25/4/045007
Bi 2 Sr 2 Cu O 6,{},"{'Bi': 2, 'Sr': 2, 'Cu': 1, 'O': 6}",40.0,0.0,,,10.1142/s0217979291000791
Ce Co In 5,{},"{'Ce': 1, 'Co': 1, 'In': 5}",2.3,0.0,,,10.1103/physrevb.77.165129
Ce Co In 5,{},"{'Ce': 1, 'Co': 1, 'In': 5}",0.9,0.0,,,10.1103/physrevb.77.165129
H 2,{},{'H': 2},1.0,0.0,,,10.1063/1.1537460
N 2,{},{'N': 2},1.0,0.0,,,10.1063/1.1537460
Mg B 2,{},"{'Mg': 1, 'B': 2}",39.0,0.0,,,10.1063/1.1537460
Ca Be Si,{},"{'Ca': 1, 'Be': 1, 'Si': 1}",2.0,0.0,,,
Pb Cu,{},"{'Pb': 1, 'Cu': 1}",7.2,0.0,,,10.1142/s0218271812500381
Ce Co In 5,{},"{'Ce': 1, 'Co': 1, 'In': 5}",2.3,0.0,,,10.1103/physrevb.99.035136
Rb 3 C 60,{},"{'Rb': 3, 'C': 60}",30.0,0.0,,,10.1103/physrevb.66.054532
Cs Eu Fe 4 As 4,{},"{'Cs': 1, 'Eu': 1, 'Fe': 4, 'As': 4}",35.2,0.0,,,10.1007/s11434-016-1139-2
Fe Se,{},"{'Fe': 1, 'Se': 1}",4.3,0.0,,,10.1038/s41535-017-0019-6
As Fe S,{},"{'As': 1, 'Fe': 1, 'S': 1}",4.3,0.0,single crystals,,10.1038/s41535-017-0019-6
Mg B 2,{},"{'Mg': 1, 'B': 2}",39.0,0.0,,,10.1103/physrevb.80.094501
Nb,{},{'Nb': 1},9.2,0.0,,,10.1103/physrevb.68.224504
La O Ni As,{},"{'La': 1, 'O': 1, 'Ni': 1, 'As': 1}",2.75,0.0,,,10.1016/s0277-5387(00)83891-7
Ba Ni 2 As,{},"{'Ba': 1, 'Ni': 2, 'As': 1}",0.7,0.0,,,10.1016/s0277-5387(00)83891-7
La O Ni P,{},"{'La': 1, 'O': 1, 'Ni': 1, 'P': 1}",3.0,0.0,,,10.1016/s0277-5387(00)83891-7
Sm Fe As O 1-x F x,{'x': []},,56.0,0.0,,,10.1016/s0277-5387(00)83891-7
Nd Fe As O 1-x F x,{'x': []},,56.0,0.0,,,10.1016/s0277-5387(00)83891-7
Pr Fe As O 1-x F x,{'x': []},,56.0,0.0,,,10.1016/s0277-5387(00)83891-7
Ta,{},{'Ta': 1},0.5,0.0,film,,
Al,{},{'Al': 1},1.2,0.0,,,
La O Fe As 1-x F,{'x': []},,26.0,0.0,,,
Fe Se,{},"{'Fe': 1, 'Se': 1}",55.0,0.0,,,
Ce Fe As O 0.89 F 0.1,{},"{'Ce': 1, 'Fe': 1, 'As': 1, 'O': 0.89, 'F': 0.1}",41.0,0.0,,,10.1038/nature07058
Sm Fe As O 0.89 F 0.1,{},"{'Sm': 1, 'Fe': 1, 'As': 1, 'O': 0.89, 'F': 0.1}",43.0,0.0,,,10.1038/nature07058
Nd Fe As O 0.89 F 0.1,{},"{'Nd': 1, 'Fe': 1, 'As': 1, 'O': 0.89, 'F': 0.1}",52.0,0.0,,,10.1038/nature07058
La Fe As O 0.89 F 0.1,{},"{'La': 1, 'Fe': 1, 'As': 1, 'O': 0.89, 'F': 0.1}",26.0,0.0,,,10.1038/nature07058
La Fe As O F 0.11,{},"{'La': 1, 'Fe': 1, 'As': 1, 'O': 1, 'F': 0.11}",52.0,0.0,,,10.1038/nature07058
Nb 3 Sn,{},"{'Nb': 3, 'Sn': 1}",90.0,0.0,,,10.1103/physrevapplied.5.024001
Fe Se,{},"{'Fe': 1, 'Se': 1}",34.0,7.0,single crystal,,10.1063/1.4885473
Fe Se,{},"{'Fe': 1, 'Se': 1}",13.5,1.48,,,10.1063/1.4885473
Ce Ir In 5,{},"{'Ce': 1, 'Ir': 1, 'In': 5}",0.4,0.0,,,10.1103/physrevlett.100.207003
Ce Ir In 5,{},"{'Ce': 1, 'Ir': 1, 'In': 5}",1.0,3.0,,,10.1103/physrevlett.100.207003
Bi,{},{'Bi': 1},95.0,0.0,,,10.1007/978-94-007-6618-1_21
Nb N,{},"{'Nb': 1, 'N': 1}",15.0,0.0,,,10.1103/physrevb.85.014505
Ca C 6,{},"{'Ca': 1, 'C': 6}",6.5,0.0,,,10.1103/physrevb.77.024507
K C 8,{},"{'K': 1, 'C': 8}",0.14,0.0,,,10.1103/physrevb.77.024507
Na C 2,{},"{'Na': 1, 'C': 2}",5.0,0.0,,,10.1103/physrevb.77.024507
K Tl 1.5 C 5,{},"{'K': 1, 'Tl': 1.5, 'C': 5}",2.7,0.0,,,10.1103/physrevb.77.024507
Zn,{},{'Zn': 1},3.4,0.0,,,10.1103/physrevb.77.245307
H 3 S,{},"{'H': 3, 'S': 1}",200.0,170.0,,,10.1007/s10948-019-05277-4
H 3 S,{},"{'H': 3, 'S': 1}",203.0,250.0,,,10.1007/s10948-019-05277-4
Mg B 2,{},"{'Mg': 1, 'B': 2}",39.0,0.0,,,10.1088/0953-8984/26/49/493202
La Ni C 2,{},"{'La': 1, 'Ni': 1, 'C': 2}",2.7,0.0,,,10.1016/j.physc.2014.01.008
Na Fe As,{},"{'Na': 1, 'Fe': 1, 'As': 1}",140.0,0.0,,,10.1088/1367-2630/14/7/073019
Nd Ni O 2,{},"{'Nd': 1, 'Ni': 1, 'O': 2}",14.9,0.0,thin films,SrTiO 3,10.1103/physrevb.101.020501
Nd 0.8 Sr 0.2 Ni O 2,{},"{'Nd': 0.8, 'Sr': 0.2, 'Ni': 1, 'O': 2}",15.0,0.0,,,10.1103/physrevb.101.020501
Bi 2 Se 3,{},"{'Bi': 2, 'Se': 3}",3.8,0.0,,,10.1209/0295-5075/109/67006
Cu,{},{'Cu': 1},3.8,0.0,,,10.1209/0295-5075/109/67006
Y Ba 2 Cu 3 O 7-y,{'y': []},,89.5,0.0,,,10.1134/1.1387523
H 3 S,{},"{'H': 3, 'S': 1}",180.0,200.0,,,10.1140/epjb/e2016-70020-0
Lu B 12,{},"{'Lu': 1, 'B': 12}",0.42,0.0,,,
Zr B 12,{},"{'Zr': 1, 'B': 12}",6.0,0.0,single crystals,,
Zr B 12,{},"{'Zr': 1, 'B': 12}",6.0,0.0,,,
La O 0.7 F 0.3 Bi S 2,{},"{'La': 1, 'O': 0.7, 'F': 0.3, 'Bi': 1, 'S': 2}",2.5,0.0,,,10.7566/jpsj.86.054701
Ba Fe 2-x Pt x As 2,"{'x': [0.1, 0.02]}","{'Ba': 1, 'Fe': 1.9, 'Pt': 0.1, 'As': 2}",25.0,0.0,,,10.1103/physrevb.81.104525
(Ba Sr) 1-x K x Fe 2 As 2,{'x': [0.4]},"{'Ba': 0.6, 'Sr': 0.6, 'K': 0.4, 'Fe': 2, 'As': 2}",38.0,0.0,,,10.1103/physrevb.81.104525
Ba Fe 2 As 2,{},"{'Ba': 1, 'Fe': 2, 'As': 2}",25.0,0.0,,,10.1103/physrevb.81.104525
Li Fe As,{},"{'Li': 1, 'Fe': 1, 'As': 1}",18.0,0.0,,,10.1103/physrevlett.108.047002
Li Fe P,{},"{'Li': 1, 'Fe': 1, 'P': 1}",17.3,0.0,,,10.1103/physrevlett.108.047002
Li Fe P,{},"{'Li': 1, 'Fe': 1, 'P': 1}",18.0,0.0,,,10.1103/physrevlett.108.047002
Li Fe P,{},"{'Li': 1, 'Fe': 1, 'P': 1}",5.0,0.0,,,10.1103/physrevlett.108.047002
Li Fe As,{},"{'Li': 1, 'Fe': 1, 'As': 1}",18.4,0.0,,,10.1103/physrevlett.108.047002
La Fe P O,{},"{'La': 1, 'Fe': 1, 'P': 1, 'O': 1}",6.0,0.0,,,10.1103/physrevlett.108.047002
N b Se 2,{'b': []},,7.3,0.0,single crystal,,10.1103/physrevb.84.012508
(N H 3) K 3 C 60,{},"{'N': 1, 'H': 3, 'K': 3, 'C': 60}",30.0,0.0,,,10.1103/physrevlett.90.197007
Rb Fe 2 As 2,{},"{'Rb': 1, 'Fe': 2, 'As': 2}",2.6,0.0,,,10.1103/physrevb.79.104521
Ba Fe 2 As 2,{},"{'Ba': 1, 'Fe': 2, 'As': 2}",23.0,0.0,Single Crystals,,10.1103/physrevb.79.104521
Cs Fe 2 As 2,{},"{'Cs': 1, 'Fe': 2, 'As': 2}",3.8,0.0,,,10.1103/physrevb.79.104521
Ba 1-x K x Fe 2 As 2,{'x': []},,38.0,0.0,,,10.1103/physrevb.79.104521
K Fe 2 As 2,{},"{'K': 1, 'Fe': 2, 'As': 2}",3.8,0.0,,,10.1103/physrevb.79.104521
Ba 1-x Rb x Fe 2 As 2,{'x': [0.05]},"{'Ba': 0.95, 'Rb': 0.05, 'Fe': 2, 'As': 2}",23.0,0.0,Single crystals,,10.1103/physrevb.79.104521
H 2 S,{},"{'H': 2, 'S': 1}",150.0,150.0,,,10.1038/s41598-020-58065-9
La Y H,{},"{'La': 1, 'Y': 1, 'H': 1}",32.0,150.0,,,10.1038/s41598-020-58065-9
H 3 S,{},"{'H': 3, 'S': 1}",203.0,150.0,,,10.1038/s41598-020-58065-9
La H 10,{},"{'La': 1, 'H': 10}",215.0,150.0,,,10.1038/s41598-020-58065-9
La Sc H,{},"{'La': 1, 'Sc': 1, 'H': 1}",52.0,150.0,,,10.1038/s41598-020-58065-9
Nb B 2,{},"{'Nb': 1, 'B': 2}",3.9,0.0,,,10.1134/1.1514768
Ta B 2,{},"{'Ta': 1, 'B': 2}",1.5,0.0,,,10.1134/1.1514768
Mg B 2,{},"{'Mg': 1, 'B': 2}",40.0,0.0,,,10.1134/1.1514768
Ag B 2,{},"{'Ag': 1, 'B': 2}",50.0,0.0,,,10.1134/1.1514768
Zr B 2,{},"{'Zr': 1, 'B': 2}",0.7,0.0,,,10.1134/1.1514768
Ta B 2,{},"{'Ta': 1, 'B': 2}",5.5,0.0,,,10.1134/1.1514768
Hg Ba 2 Cu O 4+δ,{'δ': []},,72.0,0.0,,,10.1038/s41567-019-0509-5
Hg Ba 2 Ca 2 Cu 3 O 8+δ,{'δ': []},,117.0,0.0,,,10.1038/s41567-019-0509-5
La O 1-x F x Fe As,{'x': []},,26.0,0.0,,,10.1209/0295-5075/102/37003
Mg B 2,{},"{'Mg': 1, 'B': 2}",37.75,0.0,,,10.1063/1.3186048
Mg B 2,{},"{'Mg': 1, 'B': 2}",35.95,0.0,,,10.1063/1.3186048
Mg B 2,{},"{'Mg': 1, 'B': 2}",5.8,0.0,,,10.1063/1.3186048
Ba (Fe 1-x Co x) 2 As 2,{'x': []},,20.0,0.0,,,10.1103/physrevb.80.174517
Ba Fe 2-x Co x As 2,{'x': [0.19]},"{'Ba': 1, 'Fe': 1.81, 'Co': 0.19, 'As': 2}",23.0,0.0,,,10.1103/physrevb.81.014513
Nd O 1-x F x Bi S 2,{'x': []},,5.6,0.0,,,10.1209/0295-5075/101/17004
Bi 4 O 4 S 3,{},"{'Bi': 4, 'O': 4, 'S': 3}",4.5,0.0,,,10.1209/0295-5075/101/17004
Y Ba 2 Cu 3 O x,{'x': [6.4]},"{'Y': 1, 'Ba': 2, 'Cu': 3, 'O': 6.4}",35.0,0.0,single crystals,,10.1103/physrevb.97.224513
Bi 2 Sr 2 Ca Cu 2 O 8,{},"{'Bi': 2, 'Sr': 2, 'Ca': 1, 'Cu': 2, 'O': 8}",56.0,0.0,,,10.1073/pnas.0811335106
Bi 2 Sr 2 Ca Cu 2 O 8,{},"{'Bi': 2, 'Sr': 2, 'Ca': 1, 'Cu': 2, 'O': 8}",1.0,0.0,,,10.1073/pnas.0811335106
Bi 2 Sr 2 Ca 2 Cu 3 O 10,{},"{'Bi': 2, 'Sr': 2, 'Ca': 2, 'Cu': 3, 'O': 10}",4.0,0.0,,,10.1073/pnas.0811335106
Sr 2 Ru O 4,{},"{'Sr': 2, 'Ru': 1, 'O': 4}",1.5,0.0,,,10.1103/physrevlett.111.097003
Y Ba 2 Cu 3 O 7,{},"{'Y': 1, 'Ba': 2, 'Cu': 3, 'O': 7}",87.0,0.0,,,10.1103/physrevlett.82.1939
La Fe As O 1-x F x,{'x': []},,26.0,0.0,,,10.1007/s10909-020-02418-1
Nb 2 Pd S 5,{},"{'Nb': 2, 'Pd': 1, 'S': 5}",6.0,0.0,,,10.1007/s10948-015-2961-5
Nd O 0.7 F 0.3 Bi S 2,{},"{'Nd': 1, 'O': 0.7, 'F': 0.3, 'Bi': 1, 'S': 2}",5.1,0.0,,,10.7566/jpsj.83.113701
Sc 2 Fe 3 Si 5,{},"{'Sc': 2, 'Fe': 3, 'Si': 5}",4.46,0.0,,,10.1016/j.intermet.2012.07.003
Lu 2 Fe 3 Si 5,{},"{'Lu': 2, 'Fe': 3, 'Si': 5}",6.25,0.0,,,10.1016/j.intermet.2012.07.003
Sr 1-x Sm x Fe As F,{'x': []},,55.0,0.0,,,10.1016/j.intermet.2012.07.003
Fe Se,{},"{'Fe': 1, 'Se': 1}",8.0,0.0,,,10.1016/j.intermet.2012.07.003
Y 2 Fe 3 Si 5,{},"{'Y': 2, 'Fe': 3, 'Si': 5}",1.68,0.0,,,10.1016/j.intermet.2012.07.003
Er 2 Fe 3 Si 5,{},"{'Er': 2, 'Fe': 3, 'Si': 5}",0.47,0.0,,,10.1016/j.intermet.2012.07.003
La Fe As O 1-x F x,{'x': []},,26.0,0.0,,,10.1103/physrevlett.103.027002
Mo Se Te,{},"{'Mo': 1, 'Se': 1, 'Te': 1}",0.1,0.0,,,10.1002/adma.201904641
Mo Se 0.95 Te 1.05,{},"{'Mo': 1, 'Se': 0.95, 'Te': 1.05}",3.43,0.0,,,10.1002/adma.201904641
Ag (C N) 2,{},"{'Ag': 1, 'C': 2, 'N': 2}",7.0,0.0,,,10.1021/jp002993t
La 2-x Ba x Cu O 4,{'x': []},,40.0,0.0,,,10.1103/physrevb.95.241111
Pr Fe As O 1-y,{'y': []},,51.0,0.0,,,10.1103/physrevb.79.064520
Li Fe As,{},"{'Li': 1, 'Fe': 1, 'As': 1}",19.7,0.0,,,
Li 1+x Fe As,{'x': [0.2]},"{'Li': 1.2, 'Fe': 1, 'As': 1}",19.7,0.0,,,
Ba 0.6 K 0.4 Fe 2 As 2,{},"{'Ba': 0.6, 'K': 0.4, 'Fe': 2, 'As': 2}",37.0,0.0,,,
Y Ba 2 Cu 3 O 6.5,{},"{'Y': 1, 'Ba': 2, 'Cu': 3, 'O': 6.5}",55.0,0.0,single crystal,,10.1103/physrevb.80.214505
Tb Fe As O,{},"{'Tb': 1, 'Fe': 1, 'As': 1, 'O': 1}",52.0,0.0,single phase,,10.1103/physrevb.78.132506
Ce Fe As O 1-x F x,{'x': []},,41.0,0.0,,,10.1103/physrevb.78.132506
Nd Fe As O 1-x F x,{'x': [0.1]},"{'Nd': 1, 'Fe': 1, 'As': 1, 'O': 0.9, 'F': 0.1}",52.0,0.0,,,10.1103/physrevb.78.132506
Sm Fe As O 1-x F x,{'x': []},,55.0,0.0,,,10.1103/physrevb.78.132506
Gd Fe As O 1-x F x,{'x': []},,36.0,0.0,,,10.1103/physrevb.78.132506
Pr Fe As O 1-x F x,{'x': [0.1]},"{'Pr': 1, 'Fe': 1, 'As': 1, 'O': 0.9, 'F': 0.1}",52.0,0.0,,,10.1103/physrevb.78.132506
Tb Fe As O,{},"{'Tb': 1, 'Fe': 1, 'As': 1, 'O': 1}",46.0,0.0,,,10.1103/physrevb.78.132506
Gd 1-x Th x Fe As O,{'x': []},,56.0,0.0,,,10.1103/physrevb.78.132506
Eu S,{},"{'Eu': 1, 'S': 1}",16.8,0.0,,,10.1063/1.1436284
Zr Zn 2,{},"{'Zr': 1, 'Zn': 2}",28.5,0.0,,,10.1088/0953-8984/15/24/105
Zr Zn 2,{},"{'Zr': 1, 'Zn': 2}",0.29,0.0,,,10.1088/0953-8984/15/24/105
U Ge 2,{},"{'U': 1, 'Ge': 2}",52.0,0.0,,,10.1088/0953-8984/15/24/105
U Rh Ge,{},"{'U': 1, 'Rh': 1, 'Ge': 1}",0.25,0.0,,,10.1088/0953-8984/15/24/105
Nb 3 Sn,{},"{'Nb': 3, 'Sn': 1}",9.2,0.0,,,10.1103/physrevb.91.094501
Mg B 2,{},"{'Mg': 1, 'B': 2}",39.0,0.0,,,10.1103/physrevb.91.094501
Sn,{},{'Sn': 1},3.68,0.0,,,10.1103/physrevb.91.094501
Al,{},{'Al': 1},1.2,0.0,,,10.1103/physrevb.91.094501
Ba Ti O 3,{},"{'Ba': 1, 'Ti': 1, 'O': 3}",0.15,0.0,,,10.1103/physrevb.91.094501
H 2 S,{},"{'H': 2, 'S': 1}",203.0,170.0,,,10.1103/physrevb.91.094501
Mg C Ni 3,{},"{'Mg': 1, 'C': 1, 'Ni': 3}",8.0,0.0,,,
Zn N y Ni 3,{'y': []},,3.0,0.0,,,
Mg C Ni 3,{},"{'Mg': 1, 'C': 1, 'Ni': 3}",3.0,0.0,,,
Y Ba 2 Cu 3 O 7,{},"{'Y': 1, 'Ba': 2, 'Cu': 3, 'O': 7}",53.0,0.0,,,10.1103/physrevb.64.024523
Y Ba 2 Cu 3 O 6,{},"{'Y': 1, 'Ba': 2, 'Cu': 3, 'O': 6}",53.0,0.0,,,10.1103/physrevb.64.024523
Y Ba 2 Cu 3 O 7-δ,{'δ': []},,60.0,0.0,,,10.1103/physrevb.100.054514
Bi 2 Sr 2 Ca Cu 2 O 8,{},"{'Bi': 2, 'Sr': 2, 'Ca': 1, 'Cu': 2, 'O': 8}",88.0,0.0,,,10.1088/0256-307x/33/12/127402
(Li 0.8 Fe 0.2 O H) Fe Se,{},"{'Li': 0.8, 'Fe': 1.2, 'O': 1, 'H': 1, 'Se': 1}",40.0,0.0,,,10.1088/0256-307x/33/12/127402
Ce Pt 3 Si,{},"{'Ce': 1, 'Pt': 3, 'Si': 1}",0.65,0.0,polycrystalline,,10.1103/physrevlett.94.107001
V 3 Si,{},"{'V': 3, 'Si': 1}",17.0,0.0,polycrystalline,,10.1103/physrevlett.94.107001
La 2-x Sr x Cu O 4,{'x': []},,40.0,0.0,,,10.1103/physrevlett.108.227003
Hg Ba 2 Cu O 6,{},"{'Hg': 1, 'Ba': 2, 'Cu': 1, 'O': 6}",77.0,0.0,single crystals,,10.1103/physrevlett.108.227003
Ba Fe 2 As 2,{},"{'Ba': 1, 'Fe': 2, 'As': 2}",27.0,3.0,,,10.1143/jpsj.78.025001
Ca Fe 2 As 2,{},"{'Ca': 1, 'Fe': 2, 'As': 2}",13.0,0.5,,,10.1143/jpsj.78.025001
Sr Fe 2 As 2,{},"{'Sr': 1, 'Fe': 2, 'As': 2}",29.0,3.5,,,10.1143/jpsj.78.025001
Mg C Ni 3,{},"{'Mg': 1, 'C': 1, 'Ni': 3}",6.9,0.0,,,10.1103/physrevb.71.174511
Fe Se,{},"{'Fe': 1, 'Se': 1}",45.0,17.8,thin films,,10.7566/jpsj.84.063701
Bi 2 Sr 2 Ca Cu 2 O 8,{},"{'Bi': 2, 'Sr': 2, 'Ca': 1, 'Cu': 2, 'O': 8}",66.0,0.0,,,10.1073/pnas.1302932110
Bi 2 Sr 2 Ca Cu 2 O 8,{},"{'Bi': 2, 'Sr': 2, 'Ca': 1, 'Cu': 2, 'O': 8}",55.0,0.0,,,10.1073/pnas.1302932110
Dy 2,{},{'Dy': 2},66.0,0.0,,,10.1073/pnas.1302932110
In,{},{'In': 1},3.4,0.0,,,10.1103/physrevb.65.024401
Cu x Bi 2 Se 3,{'x': []},,3.0,0.0,,,10.1103/physrevb.100.224509
Sr x Bi 2 Se 3,{'x': []},,3.0,0.0,,,10.1103/physrevb.100.224509
Nb x Bi 2 Se 3,{'x': []},,3.0,0.0,,,10.1103/physrevb.100.224509
Ni Bi 3,{},"{'Ni': 1, 'Bi': 3}",4.05,0.0,,,10.1016/j.ssc.2011.01.005
In,{},{'In': 1},2.0,0.0,,,10.1103/physrevb.93.024520
Mg B 2,{},"{'Mg': 1, 'B': 2}",37.6,0.0,film,,10.1103/physrevb.84.205438