Material,Substitutions,Composition,Tc (K),Pressure (GPa),Shape,Substrate,DOI
La O F e P,{'e': []},,5.0,0.0,,,10.1070/pu2008v051n12abeh006820
La O 0.9 F 0.1 F e As,{'e': []},,27.0,0.0,,,10.1070/pu2008v051n12abeh006820
Gd 0.9 Sr 0.1 O N i Bi,{'i': []},,0.7,0.0,,,10.1070/pu2008v051n12abeh006820
Y Ba 2 Cu 3 O 7-x,{'x': [0.05]},"{'Y': 1, 'Ba': 2, 'Cu': 3, 'O': 6.95}",26.0,0.0,,,10.1070/pu2008v051n12abeh006820
Nd Ba 2 Cu 3 O 7-x,{'x': [0.05]},"{'Nd': 1, 'Ba': 2, 'Cu': 3, 'O': 6.95}",26.0,0.0,,,10.1070/pu2008v051n12abeh006820
Sm Ba 2 Cu 3 O 7-x,{'x': [0.05]},"{'Sm': 1, 'Ba': 2, 'Cu': 3, 'O': 6.95}",26.0,0.0,,,10.1070/pu2008v051n12abeh006820
Eu Ba 2 Cu 3 O 7-x,{'x': [0.05]},"{'Eu': 1, 'Ba': 2, 'Cu': 3, 'O': 6.95}",26.0,0.0,,,10.1070/pu2008v051n12abeh006820
Gd Ba 2 Cu 3 O 7-x,{'x': [0.05]},"{'Gd': 1, 'Ba': 2, 'Cu': 3, 'O': 6.95}",26.0,0.0,,,10.1070/pu2008v051n12abeh006820
Ho Ba 2 Cu 3 O 7-x,{'x': [0.05]},"{'Ho': 1, 'Ba': 2, 'Cu': 3, 'O': 6.95}",26.0,0.0,,,10.1070/pu2008v051n12abeh006820
Er Ba 2 Cu 3 O 7-x,{'x': [0.05]},"{'Er': 1, 'Ba': 2, 'Cu': 3, 'O': 6.95}",26.0,0.0,,,10.1070/pu2008v051n12abeh006820
Tm Ba 2 Cu 3 O 7-x,{'x': [0.05]},"{'Tm': 1, 'Ba': 2, 'Cu': 3, 'O': 6.95}",26.0,0.0,,,10.1070/pu2008v051n12abeh006820
Yb Ba 2 Cu 3 O 7-x,{'x': [0.05]},"{'Yb': 1, 'Ba': 2, 'Cu': 3, 'O': 6.95}",26.0,0.0,,,10.1070/pu2008v051n12abeh006820
Lu Ba 2 Cu 3 O 7-x,{'x': [0.05]},"{'Lu': 1, 'Ba': 2, 'Cu': 3, 'O': 6.95}",26.0,0.0,,,10.1070/pu2008v051n12abeh006820
Dy Ba 2 Cu 3 O 7-x,{'x': [0.05]},"{'Dy': 1, 'Ba': 2, 'Cu': 3, 'O': 6.95}",26.0,0.0,,,10.1070/pu2008v051n12abeh006820
Y O Fe As,{},"{'Y': 1, 'O': 1, 'Fe': 1, 'As': 1}",26.0,0.0,,,10.1070/pu2008v051n12abeh006820
Nd O Fe As,{},"{'Nd': 1, 'O': 1, 'Fe': 1, 'As': 1}",26.0,0.0,,,10.1070/pu2008v051n12abeh006820
Sm O Fe As,{},"{'Sm': 1, 'O': 1, 'Fe': 1, 'As': 1}",26.0,0.0,,,10.1070/pu2008v051n12abeh006820
Eu O Fe As,{},"{'Eu': 1, 'O': 1, 'Fe': 1, 'As': 1}",26.0,0.0,,,10.1070/pu2008v051n12abeh006820
Gd O Fe As,{},"{'Gd': 1, 'O': 1, 'Fe': 1, 'As': 1}",26.0,0.0,,,10.1070/pu2008v051n12abeh006820
Ho O Fe As,{},"{'Ho': 1, 'O': 1, 'Fe': 1, 'As': 1}",26.0,0.0,,,10.1070/pu2008v051n12abeh006820
Er O Fe As,{},"{'Er': 1, 'O': 1, 'Fe': 1, 'As': 1}",26.0,0.0,,,10.1070/pu2008v051n12abeh006820
Tm O Fe As,{},"{'Tm': 1, 'O': 1, 'Fe': 1, 'As': 1}",26.0,0.0,,,10.1070/pu2008v051n12abeh006820
Yb O Fe As,{},"{'Yb': 1, 'O': 1, 'Fe': 1, 'As': 1}",26.0,0.0,,,10.1070/pu2008v051n12abeh006820
Lu O Fe As,{},"{'Lu': 1, 'O': 1, 'Fe': 1, 'As': 1}",26.0,0.0,,,10.1070/pu2008v051n12abeh006820
Dy O Fe As,{},"{'Dy': 1, 'O': 1, 'Fe': 1, 'As': 1}",26.0,0.0,,,10.1070/pu2008v051n12abeh006820
N d O F e As,"{'e': [], 'd': []}",,55.0,0.0,,,10.1070/pu2008v051n12abeh006820
Sm O 0.85 F 0.15 F e As,{'e': []},,42.0,0.0,,,10.1070/pu2008v051n12abeh006820
La O N i P,{'i': []},,3.0,0.0,,,10.1070/pu2008v051n12abeh006820
N d O 0.6 F e As,"{'e': [], 'd': []}",,53.0,0.0,,,10.1070/pu2008v051n12abeh006820
Ba 0.6 K 0.4 Fe 2 As 2,{},"{'Ba': 0.6, 'K': 0.4, 'Fe': 2, 'As': 2}",37.0,0.0,,,10.1070/pu2008v051n12abeh006820
Sm O 0.85 F e As,{'e': []},,52.0,0.0,,,10.1070/pu2008v051n12abeh006820
La O 1-x F x F e As,"{'x': [0.05], 'e': []}",,26.0,0.0,,,10.1070/pu2008v051n12abeh006820
La O 0.87 F 0.13 F e As,{'e': []},,26.0,0.0,,,10.1070/pu2008v051n12abeh006820
N d O 0.86 F 0.14 F e As,"{'e': [], 'd': []}",,48.0,0.0,,,10.1070/pu2008v051n12abeh006820
(Sr K) Fe 2 As 2,{},"{'Sr': 1, 'K': 1, 'Fe': 2, 'As': 2}",21.0,0.0,,,10.1070/pu2008v051n12abeh006820
La O 1-δ N i Bi,"{'δ': [], 'i': []}",,4.0,0.0,,,10.1070/pu2008v051n12abeh006820
Y O 1-x F e As,"{'x': [], 'e': []}",,46.0,0.0,,,10.1070/pu2008v051n12abeh006820
La O 1-x F e As,"{'x': [0.16], 'e': []}",,41.0,0.0,,,10.1070/pu2008v051n12abeh006820
Sr 1-x La x F Fe As,{'x': []},,5.0,0.0,,,10.1070/pu2008v051n12abeh006820
Sm O 0.9 F 0.1 F e As,{'e': []},,51.5,0.0,,,10.1070/pu2008v051n12abeh006820
K Fe 2 As 2,{},"{'K': 1, 'Fe': 2, 'As': 2}",3.0,0.0,,,10.1070/pu2008v051n12abeh006820
F e Se 0.92,{'e': []},,8.0,0.0,,,10.1070/pu2008v051n12abeh006820
La O 1-x F x N i As,"{'x': [], 'i': []}",,2.75,0.0,,,10.1070/pu2008v051n12abeh006820
La Fe 1-x Co x As O,{'x': []},,13.0,0.0,,,10.1103/physrevb.79.174505
La Fe As O 1-x F x,{'x': []},,26.0,0.0,,,10.1103/physrevb.79.174505
Ba Fe 1.8 Co 0.2 As 2,{},"{'Ba': 1, 'Fe': 1.8, 'Co': 0.2, 'As': 2}",22.0,0.0,,,10.1103/physrevb.79.174505
La Ni As O,{},"{'La': 1, 'Ni': 1, 'As': 1, 'O': 1}",2.5,0.0,,,10.1103/physrevb.79.174505
La Fe 1-x Ni x As O,"{'x': [0.04, 0.06]}","{'La': 1, 'Fe': 0.96, 'Ni': 0.04, 'As': 1, 'O': 1}",6.5,0.0,,,10.1103/physrevb.79.174505
Bi 2 Sr 2 Ca Cu 2 O 8,{},"{'Bi': 2, 'Sr': 2, 'Ca': 1, 'Cu': 2, 'O': 8}",90.0,0.0,,,
La 1.86 Sr 0.14 Cu O 4,{},"{'La': 1.86, 'Sr': 0.14, 'Cu': 1, 'O': 4}",35.0,0.0,crystals,,10.1126/science.278.5342.1432
Li Fe As,{},"{'Li': 1, 'Fe': 1, 'As': 1}",17.0,0.0,,,10.1143/jpsj.80.013706
Li Fe As,{},"{'Li': 1, 'Fe': 1, 'As': 1}",16.0,0.0,single crystal,,10.1143/jpsj.80.013706
Ta 4 Pd 3 Te 16,{},"{'Ta': 4, 'Pd': 3, 'Te': 16}",4.3,0.0,single-crystal,,
Ta 4 Pd 3 Te 16,{},"{'Ta': 4, 'Pd': 3, 'Te': 16}",4.6,0.0,,,
Mg 11 B 2,{},"{'Mg': 11, 'B': 2}",39.2,0.0,,,10.1103/physrevlett.87.047002
K 3 C 60,{},"{'K': 3, 'C': 60}",19.0,0.0,,,10.1103/physrevlett.87.047002
Ce Ir In 5,{},"{'Ce': 1, 'Ir': 1, 'In': 5}",0.4,0.0,,,10.1103/physrevlett.117.016601
Ce Co In 5,{},"{'Ce': 1, 'Co': 1, 'In': 5}",2.3,0.0,single crystals,,10.1103/physrevlett.117.016601
Y Ba 2 Cu 3 O y,{'y': []},,72.0,0.0,,,10.1126/sciadv.aao5235
Y Ba 2 Cu 3 O y,{'y': [6.72]},"{'Y': 1, 'Ba': 2, 'Cu': 3, 'O': 6.72}",73.0,0.0,single crystals,,10.1126/sciadv.aao5235
La 1.48 Nd 0.4 Sr 0.12 Cu O 4,{},"{'La': 1.48, 'Nd': 0.4, 'Sr': 0.12, 'Cu': 1, 'O': 4}",7.0,0.0,,,10.1088/1367-2630/10/10/103016
La 1.93 Sr 0.07 Cu O 4,{},"{'La': 1.93, 'Sr': 0.07, 'Cu': 1, 'O': 4}",20.0,0.0,single crystal,,10.1142/s0217984911025687
La 2 Cu O 4+δ,{'δ': []},,30.0,0.0,,,10.1142/s0217984911025687
La 2 Cu O 4+δ,{'δ': []},,20.0,0.0,,,10.1142/s0217984911025687
Sr 1.4 Ba 0.6 Cu O 4-v,{'v': []},,98.0,0.0,,,10.1103/physrevb.82.216501
Sr 1.4 Ba 0.6 Cu O 4-v,{'v': []},,130.0,0.0,,,10.1103/physrevb.82.216501
Sr 2 Cu O 4-v,{'v': []},,95.0,0.0,,,10.1103/physrevb.82.216501
B,{},{'B': 1},5.41,0.0,,,10.1103/physrevb.82.144517
S ample C,"{'p': [], 'e': [], 'm': [], 'a': [], 'l': []}",,5.01,0.0,,,10.1103/physrevb.82.144517
Bi 2 Sr 2 Ca Cu 2 O 8,{},"{'Bi': 2, 'Sr': 2, 'Ca': 1, 'Cu': 2, 'O': 8}",85.0,0.0,,,
Ba 1-x Na x Fe 2 As 2,{'x': [0.063]},"{'Ba': 0.937, 'Na': 0.063, 'Fe': 2, 'As': 2}",34.0,0.0,,,10.1103/physrevb.94.205113
K (Fe 1-x Co x) 2 As 2,{'x': []},,10.0,0.0,,,10.1103/physrevb.94.205113
Ba 1-x K x Fe 2 As 2,{'x': []},,38.0,0.0,,,10.1103/physrevb.94.205113
Ba Fe 1.85 Co 0.15 As 2,{},"{'Ba': 1, 'Fe': 1.85, 'Co': 0.15, 'As': 2}",25.5,0.0,,,10.1088/1367-2630/11/2/025020
S,{},{'S': 1},200.0,155.0,,,10.1088/1361-6668/aa5f3c
H 3 S,{},"{'H': 3, 'S': 1}",200.0,170.0,,,10.1088/1361-6668/aa5f3c
H 3 S,{},"{'H': 3, 'S': 1}",70.0,160.0,,,10.1088/1361-6668/aa5f3c
Bi 2 Sr 2 Ca Cu 2 O 8,{},"{'Bi': 2, 'Sr': 2, 'Ca': 1, 'Cu': 2, 'O': 8}",94.0,0.0,,,10.1140/epjst/e2010-01302-4
Y Ba 2 Cu 3 O 7,{},"{'Y': 1, 'Ba': 2, 'Cu': 3, 'O': 7}",93.0,0.0,,,10.1140/epjst/e2010-01302-4
Tl 2 Ba 2 Cu O 6,{},"{'Tl': 2, 'Ba': 2, 'Cu': 1, 'O': 6}",90.0,0.0,,,10.1140/epjst/e2010-01302-4
Fe Te 0.5 Se 0.5,{},"{'Fe': 1, 'Te': 0.5, 'Se': 0.5}",15.0,0.0,,,10.1016/j.jallcom.2015.01.024
Fe Te 1-x Se x,{'x': []},,15.0,0.0,,,10.1016/j.jallcom.2015.01.024
Fe Te 0.85 S 0.15,{},"{'Fe': 1, 'Te': 0.85, 'S': 0.15}",10.0,0.0,,,10.1016/j.jallcom.2015.01.024
Hg Ba 2 Ca n-1 Cu n O 2n+2+δ,"{'n': [], 'δ': []}",,10.0,0.0,,,10.1103/physrevb.63.134513
Cu Ba 2 Ca 3 Cu 4 O 12-δ,{'δ': []},,117.0,0.0,,,10.1103/physrevb.63.134513
La Ru 2 P 2,{},"{'La': 1, 'Ru': 2, 'P': 2}",4.1,0.0,,,10.1007/s11434-016-1080-4
La Ru 2 As 2,{},"{'La': 1, 'Ru': 2, 'As': 2}",7.0,0.0,,,10.1007/s11434-016-1080-4
Zr Ru P,{},"{'Zr': 1, 'Ru': 1, 'P': 1}",12.0,0.0,,,10.1007/s11434-016-1080-4
La Ru 2 As 2,{},"{'La': 1, 'Ru': 2, 'As': 2}",7.8,0.0,,,10.1007/s11434-016-1080-4
La Ru 4 As 12,{},"{'La': 1, 'Ru': 4, 'As': 12}",7.2,0.0,,,10.1007/s11434-016-1080-4
Sr 2 Ru O 4,{},"{'Sr': 2, 'Ru': 1, 'O': 4}",0.93,0.0,,,10.1007/s11434-016-1080-4
La Pd 2 As 2,{},"{'La': 1, 'Pd': 2, 'As': 2}",5.0,0.0,,,10.1007/s11434-016-1080-4
Zr Ru As,{},"{'Zr': 1, 'Ru': 1, 'As': 1}",13.0,0.0,,,10.1007/s11434-016-1080-4
Sm Fe As O 1-x F x,{'x': []},,34.0,0.0,thin film,,10.1088/0953-2048/24/6/065010
Re Fe As O 1-x F x,{'x': []},,34.0,0.0,films,,10.1088/0953-2048/24/6/065010
Sm Fe As O 1-x F x,{'x': []},,21.6,0.0,film,,10.1088/0953-2048/24/6/065010
Sm Fe As O 1-x F x,{'x': []},,34.0,0.0,,,10.1088/0953-2048/24/6/065010
Re Fe As O 1-x F x,{'x': []},,36.0,0.0,,,10.1088/0953-2048/24/6/065010
Pu Co Ga 5,{},"{'Pu': 1, 'Co': 1, 'Ga': 5}",18.5,0.0,,,10.1088/1742-6596/449/1/012028
Ce In 3,{},"{'Ce': 1, 'In': 3}",0.2,0.0,,,10.1088/1742-6596/449/1/012028
Ce Pd 2 Si 2,{},"{'Ce': 1, 'Pd': 2, 'Si': 2}",0.4,2.8,,,10.1088/1742-6596/449/1/012028
U Ru 2 Si 2,{},"{'U': 1, 'Ru': 2, 'Si': 2}",1.5,0.0,,,10.1088/1742-6596/449/1/012028
U Pd 2 Al 3,{},"{'U': 1, 'Pd': 2, 'Al': 3}",2.0,0.0,,,10.1088/1742-6596/449/1/012028
Ce Co In 5,{},"{'Ce': 1, 'Co': 1, 'In': 5}",2.3,0.0,,,10.1088/1742-6596/449/1/012028
Ba 0.55 K 0.45 Fe 2 As 2,{},"{'Ba': 0.55, 'K': 0.45, 'Fe': 2, 'As': 2}",32.0,0.0,,,10.1134/s0021364011110038
Ba 1-x K x Fe 2 As 2,{'x': []},,28.0,0.0,,,10.1134/s0021364011110038
B K F,{},"{'B': 1, 'K': 1, 'F': 1}",38.5,0.0,,,10.1134/s0021364011110038
Ba (Fe 1-x Co x) 2 As 2,{'x': []},,20.0,0.0,,,10.1016/0921-4534(89)91122-2
Ba Fe 2 (As 0.67 P 0.33) 2,{},"{'Ba': 1, 'Fe': 2, 'As': 1.34, 'P': 0.66}",30.0,0.0,,,10.1016/0921-4534(89)91122-2
B N C,{},"{'B': 1, 'N': 1, 'C': 1}",22.6,0.0,,,10.1016/0921-4534(89)91122-2
Pb,{},{'Pb': 1},15.0,0.0,,,10.1103/physrevb.67.144419
Ga 1-x Mn x As,{'x': [0.053]},"{'Ga': 0.947, 'Mn': 0.053, 'As': 1}",110.0,0.0,,,10.1103/physrevb.66.033202
Ba Fe 2 (As 1-x P x) 2,{'x': [0.33]},"{'Ba': 1, 'Fe': 2, 'As': 1.3399999999999999, 'P': 0.66}",30.0,0.0,,,10.1209/0295-5075/98/57010
Ba Fe 2 (As 1-x P x) 2,{'x': []},,31.0,0.0,,,10.1209/0295-5075/98/57010
Ba (Fe 0.95 Co 0.05) 2 As 2,{},"{'Ba': 1, 'Fe': 1.9, 'Co': 0.1, 'As': 2}",18.0,0.0,,,10.1209/0295-5075/98/57010
La F e As O 1-x F x,"{'x': [], 'e': []}",,26.0,0.0,,,10.1103/physrevb.82.020515
Ca 0.92 N d0.08 F e2 As 2,"{'e': [], 'd': []}",,45.0,0.0,,,10.1103/physrevb.82.020515
La Fe P O,{},"{'La': 1, 'Fe': 1, 'P': 1, 'O': 1}",6.0,0.0,,,10.1103/physrevb.82.014526
(Ba 1-x K x) Fe 2 As 2,{'x': []},,3.0,0.0,,,10.1103/physrevb.82.014526
Ba Fe 2 (As P) 2,{},"{'Ba': 1, 'Fe': 2, 'As': 2, 'P': 2}",30.0,0.0,,,10.1103/physrevb.82.014526
Gd Fe As O 0.8 F 0.2,{},"{'Gd': 1, 'Fe': 1, 'As': 1, 'O': 0.8, 'F': 0.2}",51.2,0.0,,,10.1088/1742-6596/150/5/052088
Gd Fe As O 0.8 F 0.2,{},"{'Gd': 1, 'Fe': 1, 'As': 1, 'O': 0.8, 'F': 0.2}",10.0,0.0,,,10.1088/1742-6596/150/5/052088
Y,{},{'Y': 1},10.0,0.0,,,10.1088/1742-6596/150/5/052088
Gd Fe As O 0.8 F 0.2,{},"{'Gd': 1, 'Fe': 1, 'As': 1, 'O': 0.8, 'F': 0.2}",40.8,0.0,,,10.1088/1742-6596/150/5/052088
Lu 0.814 Y 0.186 Fe 2 Ge 2,{},"{'Lu': 0.814, 'Y': 0.186, 'Fe': 2, 'Ge': 2}",2.0,0.0,,,10.1080/14786435.2015.1004378
Y Fe 2 Ge 2,{},"{'Y': 1, 'Fe': 2, 'Ge': 2}",1.8,0.0,,,10.1080/14786435.2015.1004378
Ca C 6,{},"{'Ca': 1, 'C': 6}",18.0,0.0,,,10.1103/physrevlett.95.227001
Mg B 2,{},"{'Mg': 1, 'B': 2}",39.0,0.0,film,,10.1103/physrevb.71.104514
Mg B 2,{},"{'Mg': 1, 'B': 2}",39.3,0.0,"polycrystalline, film",,10.1103/physrevb.71.104514
Mg (B C y) 2,{'y': []},,39.0,0.0,,,10.1103/physrevb.75.144507
Mg B 2,{},"{'Mg': 1, 'B': 2}",39.0,0.0,,,10.1103/physrevb.75.144507
Mg B 2,{},"{'Mg': 1, 'B': 2}",22.0,0.0,,,10.1103/physrevb.75.144507
Mg B 2,{},"{'Mg': 1, 'B': 2}",30.0,0.0,,,10.1103/physrevb.75.144507
Mg B 2,{},"{'Mg': 1, 'B': 2}",39.0,0.0,crystal,,10.1103/physrevb.75.144507
Mg B 2,{},"{'Mg': 1, 'B': 2}",33.0,0.0,,,10.1103/physrevb.75.144507
Mg B 2,{},"{'Mg': 1, 'B': 2}",20.0,0.0,,,10.1103/physrevb.75.144507
Sm Fe As O 0.8 F 0.2,{},"{'Sm': 1, 'Fe': 1, 'As': 1, 'O': 0.8, 'F': 0.2}",45.0,0.0,,,10.1007/s10948-008-0413-1
La Fe As O 1-x F x,{'x': []},,26.0,0.0,,,10.1007/s10948-008-0413-1
Ba Fe 2 S 3,{},"{'Ba': 1, 'Fe': 2, 'S': 3}",24.0,13.5,,,10.1103/physrevb.95.115154
Ce Pt 3 Si,{},"{'Ce': 1, 'Pt': 3, 'Si': 1}",0.75,0.0,,,10.1143/jpsj.76.124709
U Pd 2 Al 3,{},"{'U': 1, 'Pd': 2, 'Al': 3}",2.0,0.0,,,10.1143/jpsj.76.124709
Ni Bi 3,{},"{'Ni': 1, 'Bi': 3}",4.0,0.0,,,10.1103/physrevb.88.184508
K Fe 2 As 2,{},"{'K': 1, 'Fe': 2, 'As': 2}",4.0,0.0,,,10.1088/0034-4885/74/12/124508
La Fe As O,{},"{'La': 1, 'Fe': 1, 'As': 1, 'O': 1}",26.0,0.0,,,10.1088/0034-4885/74/12/124508
Sm Fe As O 1-x F x,{'x': []},,55.0,0.0,,,10.1088/0034-4885/74/12/124508
Mg B 2,{},"{'Mg': 1, 'B': 2}",40.0,0.0,,,10.1088/0034-4885/74/12/124508
Li Fe As,{},"{'Li': 1, 'Fe': 1, 'As': 1}",17.0,0.0,single crystals,,10.1088/0034-4885/74/12/124508
K 0.8 Fe 2 Se 2,{},"{'K': 0.8, 'Fe': 2, 'Se': 2}",33.0,0.0,,,10.1088/0034-4885/74/12/124508
Fe B S s,{'s': []},,55.0,0.0,,,10.1088/0034-4885/74/12/124508
Ba Fe 1.85 Co 0.15 As 2,{},"{'Ba': 1, 'Fe': 1.85, 'Co': 0.15, 'As': 2}",25.0,0.0,,,10.1088/0034-4885/74/12/124508
La Fe P O,{},"{'La': 1, 'Fe': 1, 'P': 1, 'O': 1}",6.0,0.0,,,10.1088/0034-4885/74/12/124508
Bi 2 Sr 2 Ca Cu 2 O 8,{},"{'Bi': 2, 'Sr': 2, 'Ca': 1, 'Cu': 2, 'O': 8}",93.0,0.0,,,10.1103/physrevlett.105.077002
Li Ti 2 O 4,{},"{'Li': 1, 'Ti': 2, 'O': 4}",14.0,0.0,,,
Ba Cu O 2.5,{},"{'Ba': 1, 'Cu': 1, 'O': 2.5}",117.0,0.0,orthorhombic,,
Sm O 1-x F x Fe As,{'x': []},,55.0,0.0,,,
Ba 2 Ca n-1+x Cu n+y O z,"{'n': [], 'z': [], 'x': [], 'y': []}",,126.0,0.0,,,
(Tl 0.58 Rb 0.42) Fe 1.72 Se 2,{},"{'Tl': 0.58, 'Rb': 0.42, 'Fe': 1.72, 'Se': 2}",32.0,0.0,,,10.1063/1.4969896
K x Fe 2-y Se 2,"{'x': [], 'y': []}",,30.0,0.0,,,10.1063/1.4969896
Rb x Fe 2-y Se 2,"{'x': [], 'y': []}",,30.0,0.0,,,10.1063/1.4969896
Cs x Fe 2-y Se 2,"{'x': [], 'y': []}",,30.0,0.0,,,10.1063/1.4969896
Fe 2 Se 3,{},"{'Fe': 2, 'Se': 3}",30.0,0.0,,,10.1063/1.4969896
(Tl K) Fe 1.78 Se 2,{},"{'Tl': 1, 'K': 1, 'Fe': 1.78, 'Se': 2}",32.0,0.0,,,10.1063/1.4969896
Fe Se,{},"{'Fe': 1, 'Se': 1}",65.0,0.0,"single layer, films",SrTiO 3 (STO) substrate,10.1063/1.4969896
Fe Se,{},"{'Fe': 1, 'Se': 1}",80.0,0.0,,,10.1063/1.4969896
Tl 0.6 Rb 0.4 Fe 1.67 Se 2,{},"{'Tl': 0.6, 'Rb': 0.4, 'Fe': 1.67, 'Se': 2}",32.0,0.0,,,10.1063/1.4969896
Gd Fe As O 1-x F x,{'x': []},,53.0,0.0,,,10.1007/s10948-013-2155-y
Ca Fe 2 As 2,{},"{'Ca': 1, 'Fe': 2, 'As': 2}",49.0,0.0,,,10.1088/0256-307x/30/1/017402
Ca 0.83 La 0.17 Fe 2 As 2,{},"{'Ca': 0.83, 'La': 0.17, 'Fe': 2, 'As': 2}",42.0,0.0,Single-crystals,,10.1088/0256-307x/30/1/017402
Ca 0.83 La 0.17 Fe 2 As 2,{},"{'Ca': 0.83, 'La': 0.17, 'Fe': 2, 'As': 2}",20.0,0.0,Single-crystals,,10.1088/0256-307x/30/1/017402
U Ru 2 Si 2,{},"{'U': 1, 'Ru': 2, 'Si': 2}",17.5,0.0,,,10.1038/ncomms10712
Si O 2,{},"{'Si': 1, 'O': 2}",9.0,0.0,,,10.1103/physrevb.92.125418
Nb,{},{'Nb': 1},9.0,0.0,,,10.1103/physrevb.92.125418
Fe Se,{},"{'Fe': 1, 'Se': 1}",8.0,0.0,,,10.1103/physrevb.80.144519
Hg Ba 2 Cu O 4+δ,{'δ': []},,90.0,0.0,,,10.1103/physrevb.92.085104
Bi 2 Sr 2 Ca Cu 2 O 8,{},"{'Bi': 2, 'Sr': 2, 'Ca': 1, 'Cu': 2, 'O': 8}",62.0,0.0,,,10.1103/physrevb.71.104517
Y Ba 2 Cu 3 O 7-y,{'y': []},,90.0,0.0,,,10.1103/physrevb.71.104517
(Bi Pb) 2 Sr 2 Ca 2 Cu 3 O 10,{},"{'Bi': 2, 'Pb': 2, 'Sr': 2, 'Ca': 2, 'Cu': 3, 'O': 10}",105.0,0.0,,,10.1103/physrevb.71.104517
Ca C 6,{},"{'Ca': 1, 'C': 6}",11.5,8.0,,,10.1103/physrevb.76.220502
Ca C 6,{},"{'Ca': 1, 'C': 6}",11.6,0.0,,,10.1103/physrevb.76.220502
(Bi Pb) 2 Sr 2 Ca 2 Cu 3 O 10-x,{'x': []},,110.0,0.0,,,10.1038/nmat3887
Nb Ti,{},"{'Nb': 1, 'Ti': 1}",9.0,0.0,,,10.1038/nmat3887
Bi 2 Sr 2 Ca Cu 2 O 8,{},"{'Bi': 2, 'Sr': 2, 'Ca': 1, 'Cu': 2, 'O': 8}",95.0,0.0,,,10.1209/epl/i2000-00123-2
Bi 2 Sr 2 Ca Cu 2 O 8,{},"{'Bi': 2, 'Sr': 2, 'Ca': 1, 'Cu': 2, 'O': 8}",88.0,0.0,single crystal,,10.1209/epl/i2000-00123-2
Bi 2 Sr 2 Ca Cu 2 O 8,{},"{'Bi': 2, 'Sr': 2, 'Ca': 1, 'Cu': 2, 'O': 8}",88.0,0.0,,,10.1209/epl/i2000-00123-2
Bi 2 Sr 2 Ca Cu 2 O 8,{},"{'Bi': 2, 'Sr': 2, 'Ca': 1, 'Cu': 2, 'O': 8}",75.0,0.0,,,10.1209/epl/i2000-00123-2
Bi 2 Sr 2 Ca Cu 2 O 8,{},"{'Bi': 2, 'Sr': 2, 'Ca': 1, 'Cu': 2, 'O': 8}",51.0,0.0,single crystals,,10.1209/epl/i2000-00123-2
Bi 2 Sr 2 Ca Cu 2 O 8,{},"{'Bi': 2, 'Sr': 2, 'Ca': 1, 'Cu': 2, 'O': 8}",51.0,0.0,single crystal,,10.1209/epl/i2000-00123-2
Bi 2 Sr 2 Ca Cu 2 O 8,{},"{'Bi': 2, 'Sr': 2, 'Ca': 1, 'Cu': 2, 'O': 8}",88.5,0.0,single crystal,,10.1209/epl/i2000-00123-2
Bi 2 Sr 2 Ca Cu 2 O 8,{},"{'Bi': 2, 'Sr': 2, 'Ca': 1, 'Cu': 2, 'O': 8}",89.5,0.0,single crystal,,10.1209/epl/i2000-00123-2
Bi 2 Sr 2 Ca Cu 2 O 8,{},"{'Bi': 2, 'Sr': 2, 'Ca': 1, 'Cu': 2, 'O': 8}",75.0,0.0,single crystal,,10.1209/epl/i2000-00123-2
Tl 2 Ba 2 Cu O 6+δ,{'δ': []},,25.0,0.0,,,10.1103/physrevlett.121.267004
Y Ba 2 Cu 3 O 6+y,{'y': []},,89.0,0.0,,,10.1103/physrevlett.121.267004
Y Ba 2 Cu 3 O 6.93,{},"{'Y': 1, 'Ba': 2, 'Cu': 3, 'O': 6.93}",94.0,0.0,,,10.1103/physrevlett.121.267004
Y Ba 2 Cu 3 O 6.93,{},"{'Y': 1, 'Ba': 2, 'Cu': 3, 'O': 6.93}",59.0,0.0,,,10.1103/physrevlett.121.267004
Y Ba 2 Cu 3 O 6.52,{},"{'Y': 1, 'Ba': 2, 'Cu': 3, 'O': 6.52}",59.0,0.0,,,10.1103/physrevlett.121.267004
Y Ba 2 Cu 3 O 6.993,{},"{'Y': 1, 'Ba': 2, 'Cu': 3, 'O': 6.993}",94.0,0.0,,,10.1103/physrevlett.121.267004
Y Ba 2 Cu 3 O 6.993,{},"{'Y': 1, 'Ba': 2, 'Cu': 3, 'O': 6.993}",89.0,0.0,,,10.1103/physrevlett.121.267004
Y Ba 2 Cu 3 O 6.52,{},"{'Y': 1, 'Ba': 2, 'Cu': 3, 'O': 6.52}",16.0,0.0,,,10.1103/physrevlett.121.267004
Tl 2 Ba 2 Cu O 6+δ,{'δ': []},,89.0,0.0,,,10.1103/physrevlett.121.267004
Tl 2 Ba 2 Cu O 6+δ,{'δ': []},,45.0,0.0,,,10.1103/physrevlett.121.267004
Cu 3 O 6.333,{},"{'Cu': 3, 'O': 6.333}",16.0,0.0,,,10.1103/physrevlett.121.267004
Li 0.5 B C,{},"{'Li': 0.5, 'B': 1, 'C': 1}",105.0,0.0,,,10.1016/s0038-1098(02)00454-4
Li,{},{'Li': 1},105.0,0.0,,,10.1016/s0038-1098(02)00454-4
Al,{},{'Al': 1},1.28,0.0,,,10.1063/1.4829657
Nb Ti N,{},"{'Nb': 1, 'Ti': 1, 'N': 1}",14.0,0.0,,,10.1063/1.4829657
Tl 2 Ba 2 Cu O 6,{},"{'Tl': 2, 'Ba': 2, 'Cu': 1, 'O': 6}",90.0,0.0,,,
Nb Se 2,{},"{'Nb': 1, 'Se': 2}",7.0,0.0,,,
Ba 0.67 K 0.33 Fe 2 As 2,{},"{'Ba': 0.67, 'K': 0.33, 'Fe': 2, 'As': 2}",38.5,0.0,,,10.1038/ncomms3874
K Fe 2 As 2,{},"{'K': 1, 'Fe': 2, 'As': 2}",3.0,0.0,,,10.1038/ncomms3874
P B,{},"{'P': 1, 'B': 1}",21.3,0.0,film,,10.1063/1.2012524
La 2 O 2 Bi 3 Ag S 6,{},"{'La': 2, 'O': 2, 'Bi': 3, 'Ag': 1, 'S': 6}",1.0,0.0,,,10.1063/1.5035133
Ce Co In 5,{},"{'Ce': 1, 'Co': 1, 'In': 5}",2.3,0.0,,,10.1103/physrevlett.115.037001
Ce Cu 2 Si 2,{},"{'Ce': 1, 'Cu': 2, 'Si': 2}",0.6,0.0,,,10.1088/1674-1056/28/7/077103
Pu Co Ga 5,{},"{'Pu': 1, 'Co': 1, 'Ga': 5}",18.5,0.0,,,
La Ru 4 P 12,{},"{'La': 1, 'Ru': 4, 'P': 12}",7.2,0.0,,,10.7566/jpsj.88.065002
Sm Fe As O 0.9 F 0.1,{},"{'Sm': 1, 'Fe': 1, 'As': 1, 'O': 0.9, 'F': 0.1}",55.0,0.0,,,10.1103/physrevb.78.132509
Pr Os 4 Sb 12,{},"{'Pr': 1, 'Os': 4, 'Sb': 12}",1.8,0.0,,,10.1209/epl/i2003-00250-2
U Pt 3,{},"{'U': 1, 'Pt': 3}",1.75,0.0,,,10.1209/epl/i2003-00250-2
Rb 2 Mo 3 As 3,{},"{'Rb': 2, 'Mo': 3, 'As': 3}",11.5,0.0,,,10.1063/1.5139472
Rb 2 Mo 3 As 3,{},"{'Rb': 2, 'Mo': 3, 'As': 3}",15.0,0.0,,,10.1063/1.5139472
Cs 2 Mo 3 As 3,{},"{'Cs': 2, 'Mo': 3, 'As': 3}",10.6,0.0,,,10.1063/1.5139472
Cs 2 Mo 3 As 3,{},"{'Cs': 2, 'Mo': 3, 'As': 3}",10.5,0.0,,,10.1063/1.5139472
Rb 2 Mo 3 As 3,{},"{'Rb': 2, 'Mo': 3, 'As': 3}",10.6,0.0,,,10.1063/1.5139472
Lu B 12,{},"{'Lu': 1, 'B': 12}",0.48,0.0,,,10.1103/physrevb.98.094505
Zr B 12,{},"{'Zr': 1, 'B': 12}",6.0,0.0,,,10.1103/physrevb.98.094505
Ca 3 Rh 4 Sn 13,{},"{'Ca': 3, 'Rh': 4, 'Sn': 13}",8.0,0.0,,,10.1103/physrevb.65.104527
Nd 1.85 Ce 0.15 Cu O 4-δ,{'δ': []},,23.0,0.0,crystal,,10.1103/physrevb.65.104527
Ce Ru 2,{},"{'Ce': 1, 'Ru': 2}",6.1,0.0,,,10.1103/physrevb.65.104527
Yb 3 Rh 4 Sn 13,{},"{'Yb': 3, 'Rh': 4, 'Sn': 13}",7.6,0.0,,,10.1103/physrevb.65.104527
H Nb Se 2,{},"{'H': 1, 'Nb': 1, 'Se': 2}",7.2,0.0,,,10.1103/physrevb.65.104527
Y Ni 2 B 2 C,{},"{'Y': 1, 'Ni': 2, 'B': 2, 'C': 1}",15.5,0.0,,,10.1103/physrevb.65.104527