Material,Substitutions,Composition,Tc (K),Pressure (GPa),Shape,Substrate,DOI
Ce In 3,{},"{'Ce': 1, 'In': 3}",2.3,0.0,,,10.1103/physrevb.84.064514
Ce Co In 5,{},"{'Ce': 1, 'Co': 1, 'In': 5}",2.3,0.0,,,10.1103/physrevb.84.064514
Np Pd 5 Al 2,{},"{'Np': 1, 'Pd': 5, 'Al': 2}",4.9,0.0,,,10.1103/physrevb.84.064514
Ce Co In 5,{},"{'Ce': 1, 'Co': 1, 'In': 5}",4.9,0.0,,,10.1103/physrevb.84.064514
Np Pd 5 Al 2,{},"{'Np': 1, 'Pd': 5, 'Al': 2}",18.5,0.0,,,10.1103/physrevb.84.064514
Pu Co Ga 5,{},"{'Pu': 1, 'Co': 1, 'Ga': 5}",0.2,0.0,,,10.1103/physrevb.84.064514
U Ru 2 Si 2,{},"{'U': 1, 'Ru': 2, 'Si': 2}",1.4,0.0,,,10.7566/jpsj.85.033704
Hg Ba 2 Cu O 4+δ,{'δ': []},,94.0,0.0,,,10.1016/s0921-4534(03)01203-6
Bi 2 Sr 2 Ca Cu 2 O 8,{},"{'Bi': 2, 'Sr': 2, 'Ca': 1, 'Cu': 2, 'O': 8}",85.0,0.0,single crystals,,10.1016/s0921-4534(00)00481-0
Bi 2 Sr 2 Ca Cu 2 O 8,{},"{'Bi': 2, 'Sr': 2, 'Ca': 1, 'Cu': 2, 'O': 8}",91.0,0.0,,,10.1016/s0921-4534(00)00481-0
Sr Ti O 3,{},"{'Sr': 1, 'Ti': 1, 'O': 3}",31.6,0.0,,,10.1103/physrevmaterials.2.024801
Fe Se,{},"{'Fe': 1, 'Se': 1}",8.0,0.0,,,10.1103/physrevmaterials.2.024801
Sr Ti O 3,{},"{'Sr': 1, 'Ti': 1, 'O': 3}",8.0,0.0,,,10.1103/physrevmaterials.2.024801
Hg Ba 2 Ca 2 Cu 3 O 8+y,{'y': []},,160.0,31.0,,,10.1007/s10948-016-3489-z
Sr 0.9 La 0.1 Cu O 2,{},"{'Sr': 0.9, 'La': 0.1, 'Cu': 1, 'O': 2}",40.0,0.0,,,10.1007/s10948-016-3489-z
La 2-x Ce x Cu O 4,{'x': []},,30.0,0.0,,,10.1007/s10948-016-3489-z
Fe Se,{},"{'Fe': 1, 'Se': 1}",109.0,0.0,films,,10.1103/physrevb.97.174509
Fe Se,{},"{'Fe': 1, 'Se': 1}",8.0,0.0,Bulk,,10.1103/physrevb.97.174509
Fe Se,{},"{'Fe': 1, 'Se': 1}",60.0,0.0,,,10.1103/physrevb.97.174509
Sr Ti O 3,{},"{'Sr': 1, 'Ti': 1, 'O': 3}",8.0,0.0,,,10.1103/physrevb.97.174509
Fe Se,{},"{'Fe': 1, 'Se': 1}",60.0,0.0,ultrathin,,10.1103/physrevb.97.174509
Sn,{},{'Sn': 1},3.68,0.0,,,10.1016/j.physc.2019.1353511
Ba Ti O 3,{},"{'Ba': 1, 'Ti': 1, 'O': 3}",0.15,0.0,,,10.1016/j.physc.2019.1353511
Nb Ti,{},"{'Nb': 1, 'Ti': 1}",25.0,0.0,,,
Bi 2 Sr 2 Ca Cu 2 O 8,{},"{'Bi': 2, 'Sr': 2, 'Ca': 1, 'Cu': 2, 'O': 8}",35.0,0.0,,,
(Bi Pb) 2 Sr 2 Ca 2 Cu 3 O 10,{},"{'Bi': 2, 'Pb': 2, 'Sr': 2, 'Ca': 2, 'Cu': 3, 'O': 10}",110.0,0.0,,,
Mg 2,{},{'Mg': 2},20.0,0.0,,,
Mn,{},{'Mn': 1},0.8,0.0,,,10.1002/9783527620548.ch4b
Fe Te,{},"{'Fe': 1, 'Te': 1}",9.0,0.0,,,10.1103/physrevlett.104.057003
Sr 3 Ir 4 Sn 13,{},"{'Sr': 3, 'Ir': 4, 'Sn': 13}",5.0,0.0,,,
Ca 3 Ir 4 Sn 13,{},"{'Ca': 3, 'Ir': 4, 'Sn': 13}",7.0,0.0,,,
Yb C 6,{},"{'Yb': 1, 'C': 6}",6.5,0.0,,,10.1380/jsssj.38.460
Ca 1-x Na x Fe 2 As 2,{'x': []},,7.0,0.0,,,10.1103/physrevb.89.174512
Nd 2 Cu O 4,{},"{'Nd': 2, 'Cu': 1, 'O': 4}",29.0,0.0,,,10.1016/j.physc.2009.05.100
Mg B 2,{},"{'Mg': 1, 'B': 2}",39.0,0.0,,,10.1007/bf02724515
Li Fe As,{},"{'Li': 1, 'Fe': 1, 'As': 1}",17.0,0.0,,,10.1103/physrevb.94.134515
Al 96 Si 4,{},"{'Al': 96, 'Si': 4}",3.0,0.0,,,10.1088/1367-2630/16/4/043008
Ba Ti 2 Sb 2 O,{},"{'Ba': 1, 'Ti': 2, 'Sb': 2, 'O': 1}",5.4,0.0,,,10.1103/physrevb.89.094505
Ba Ti 2 Sb 2 O,{},"{'Ba': 1, 'Ti': 2, 'Sb': 2, 'O': 1}",1.0,0.0,,,10.1103/physrevb.89.094505
Ba 0.85 Na 0.15 Ti 2 Sb 2 O,{},"{'Ba': 0.85, 'Na': 0.15, 'Ti': 2, 'Sb': 2, 'O': 1}",4.2,0.0,,,10.1103/physrevb.89.094505
Ba Ti 2 Sb 2 O,{},"{'Ba': 1, 'Ti': 2, 'Sb': 2, 'O': 1}",5.5,0.0,,,10.1103/physrevb.89.094505
La Fe As O 1-δ F δ,{'δ': []},,29.0,0.0,,,10.1016/j.crhy.2015.03.001
Sm Fe As O 1-δ,{'δ': []},,55.0,0.0,,,10.1016/j.crhy.2015.03.001
Ba Fe 1.85 Co 0.15 As 2,{},"{'Ba': 1, 'Fe': 1.85, 'Co': 0.15, 'As': 2}",25.0,0.0,,,10.1016/j.crhy.2015.03.001
Ca Fe 1-x Co x As F,{'x': []},,22.0,0.0,,,10.1016/j.crhy.2015.03.001
Fe Se,{},"{'Fe': 1, 'Se': 1}",100.0,0.0,thin films,,10.1016/j.crhy.2015.03.001
La Fe As O,{},"{'La': 1, 'Fe': 1, 'As': 1, 'O': 1}",26.0,0.0,,,10.1016/j.crhy.2015.03.001
Fe Se,{},"{'Fe': 1, 'Se': 1}",8.5,0.0,,,10.1016/j.crhy.2015.03.001
(La Pr) Fe As O 1-δ F δ,{'δ': []},,75.0,0.0,,,10.1143/jpsj.77.103705
Ba Fe 1.8 Co 0.2 As 2,{},"{'Ba': 1, 'Fe': 1.8, 'Co': 0.2, 'As': 2}",22.0,0.0,,,10.1143/jpsj.77.103705
Ba Fe 2 As 2,{},"{'Ba': 1, 'Fe': 2, 'As': 2}",22.0,0.0,,,10.1143/jpsj.77.103705
U Ge 2,{},"{'U': 1, 'Ge': 2}",0.95,1.3,,,10.1088/1742-6596/150/5/052218
Er Ni 2 B 2 C,{},"{'Er': 1, 'Ni': 2, 'B': 2, 'C': 1}",11.0,0.0,,,10.1088/1742-6596/150/5/052218
Er Rh 4 B 4,{},"{'Er': 1, 'Rh': 4, 'B': 4}",8.7,0.0,,,10.1088/1742-6596/150/5/052218
U Rh Ge,{},"{'U': 1, 'Rh': 1, 'Ge': 1}",0.27,0.0,,,10.1088/1742-6596/150/5/052218
Mg B 2,{},"{'Mg': 1, 'B': 2}",39.0,0.0,,,10.1103/physrevb.64.172515
Mg B 2,{},"{'Mg': 1, 'B': 2}",1.0,0.0,,,10.1103/physrevb.64.172515
Mg B 2,{},"{'Mg': 1, 'B': 2}",37.5,0.0,,,10.1103/physrevb.64.172515
Tl 2 Ba 2 Cu O 6+δ,{'δ': []},,10.0,0.0,,,10.1103/physrevb.82.140501
Tl 2 Ba 2 Cu O 6,{},"{'Tl': 2, 'Ba': 2, 'Cu': 1, 'O': 6}",30.0,0.0,,,10.1103/physrevb.82.140501
Tl 2 Ba 2 Cu O 6,{},"{'Tl': 2, 'Ba': 2, 'Cu': 1, 'O': 6}",10.0,0.0,,,10.1103/physrevb.82.140501
Pd Te 2,{},"{'Pd': 1, 'Te': 2}",2.15,0.0,,,10.1103/physrevmaterials.3.114202
Fe Se,{},"{'Fe': 1, 'Se': 1}",109.0,0.0,single,,10.1103/physrevb.92.174517
Ca Co 2 As 2,{},"{'Ca': 1, 'Co': 2, 'As': 2}",70.0,0.0,,,10.1103/physrevb.92.144416
Y Ba 2 Cu 3 O 7-δ,{'δ': [0.06]},"{'Y': 1, 'Ba': 2, 'Cu': 3, 'O': 6.94}",92.0,0.0,,,10.1103/physrevb.75.014513
Y Ba 2 Cu 3 O 7-δ,{'δ': [0.06]},"{'Y': 1, 'Ba': 2, 'Cu': 3, 'O': 6.94}",92.0,0.0,single crystals,,10.1103/physrevb.75.014513
Y Ba 2 Cu 3 O 7,{},"{'Y': 1, 'Ba': 2, 'Cu': 3, 'O': 7}",92.0,0.0,,,10.1103/physrevb.75.014513
Bi 2 Sr 2 Cu O 6,{},"{'Bi': 2, 'Sr': 2, 'Cu': 1, 'O': 6}",20.0,0.0,,,
Mg B 2,{},"{'Mg': 1, 'B': 2}",10.2,0.0,,,10.1016/j.physc.2005.08.007
Mg B 2,{},"{'Mg': 1, 'B': 2}",18.0,0.0,,,10.1016/j.physc.2005.08.007
Mg B 2,{},"{'Mg': 1, 'B': 2}",2.0,0.0,,,10.1016/j.physc.2005.08.007
Pu Co Ga 5,{},"{'Pu': 1, 'Co': 1, 'Ga': 5}",18.5,0.0,,,10.1103/physrevb.92.155140
Ce Ir In 5,{},"{'Ce': 1, 'Ir': 1, 'In': 5}",0.4,0.0,single crystal,,10.1103/physrevb.85.060505
Ce Ir In 5,{},"{'Ce': 1, 'Ir': 1, 'In': 5}",0.4,0.0,,,10.1103/physrevb.85.060505
La Fe As O 1-x F x,{'x': [0.6]},"{'La': 1, 'Fe': 1, 'As': 1, 'O': 0.4, 'F': 0.6}",41.0,0.0,,,10.1016/j.ssc.2008.07.032
La Fe As O 1-x F x,{'x': []},,26.0,0.0,,,10.1016/j.ssc.2008.07.032
Li x Zr N Cl,{'x': []},,14.2,0.0,,,10.1103/physrevb.69.134522
Zr N Cl,{},"{'Zr': 1, 'N': 1, 'Cl': 1}",25.5,0.0,,,10.1103/physrevb.69.134522
Hf N Cl,{},"{'Hf': 1, 'N': 1, 'Cl': 1}",25.5,0.0,,,10.1103/physrevb.69.134522
Zr N Cl,{},"{'Zr': 1, 'N': 1, 'Cl': 1}",15.0,0.0,,,10.1103/physrevb.69.134522
K 2 Cr 3 As 3,{},"{'K': 2, 'Cr': 3, 'As': 3}",8.0,0.0,,,10.1209/0295-5075/113/37003
Na 2 Cr 3 As 3,{},"{'Na': 2, 'Cr': 3, 'As': 3}",8.0,0.0,,,10.1209/0295-5075/113/37003
Rb 2 Cr 3 As 3,{},"{'Rb': 2, 'Cr': 3, 'As': 3}",8.0,0.0,,,10.1209/0295-5075/113/37003
Cs 2 Cr 3 As 3,{},"{'Cs': 2, 'Cr': 3, 'As': 3}",8.0,0.0,,,10.1209/0295-5075/113/37003
La O Fe P,{},"{'La': 1, 'O': 1, 'Fe': 1, 'P': 1}",7.0,0.0,,,10.1209/0295-5075/82/67002
La O Ni P,{},"{'La': 1, 'O': 1, 'Ni': 1, 'P': 1}",2.0,0.0,,,10.1209/0295-5075/82/67002
Sr 2 Ru O 4,{},"{'Sr': 2, 'Ru': 1, 'O': 4}",1.0,0.0,,,10.1209/0295-5075/82/67002
Mg B 2,{},"{'Mg': 1, 'B': 2}",39.0,0.0,,,10.1209/0295-5075/82/67002
La O Fe As,{},"{'La': 1, 'O': 1, 'Fe': 1, 'As': 1}",26.0,0.0,,,10.1209/0295-5075/82/67002
La O V As,{},"{'La': 1, 'O': 1, 'V': 1, 'As': 1}",26.0,0.0,,,10.1209/0295-5075/82/67002
Pr 2 Ba 4 Cu 7 O 15-δ,{'δ': []},,26.5,0.0,,,
Pr 2 Ba 4 Cu 7 O 15-δ,{'δ': []},,15.0,0.0,polycrystalline,,
Pr 2 Ba 4 Cu 7 O 7,{},"{'Pr': 2, 'Ba': 4, 'Cu': 7, 'O': 7}",15.0,0.0,,,
Y 2 Ba 4 Cu 7 O 14,{},"{'Y': 2, 'Ba': 4, 'Cu': 7, 'O': 14}",2.0,0.0,,,
Pr 2 Ba 4 Cu 7 O 7,{},"{'Pr': 2, 'Ba': 4, 'Cu': 7, 'O': 7}",26.5,0.0,,,
Pr 2 Ba 4 Cu 7 O 7,{},"{'Pr': 2, 'Ba': 4, 'Cu': 7, 'O': 7}",27.0,0.0,,,
C,{},{'C': 1},8.0,0.0,,,10.1103/physrevb.74.024505
Bi (Pb),{},"{'Bi': 1, 'Pb': 1}",4.0,0.0,,,10.1103/physrevb.66.020503
La Bi,{},"{'La': 1, 'Bi': 1}",7.3,0.0,,,10.1088/0953-8984/19/42/425218
Lu Ni 2 B 2 C,{},"{'Lu': 1, 'Ni': 2, 'B': 2, 'C': 1}",16.5,0.0,,,10.1017/s0252921100053872
Rb 3 C 60,{},"{'Rb': 3, 'C': 60}",29.5,0.0,,,10.1017/s0252921100053872
Cs Os 2 O 6,{},"{'Cs': 1, 'Os': 2, 'O': 6}",3.3,0.0,,,10.1017/s0252921100053872
Ce Cu 2 Si 2,{},"{'Ce': 1, 'Cu': 2, 'Si': 2}",1.5,0.0,,,10.1017/s0252921100053872
Ce Co In 5,{},"{'Ce': 1, 'Co': 1, 'In': 5}",2.3,0.0,,,10.1017/s0252921100053872
U Pt 3,{},"{'U': 1, 'Pt': 3}",1.85,0.0,,,10.1017/s0252921100053872
Pr Ru 4 Os 12,{},"{'Pr': 1, 'Ru': 4, 'Os': 12}",1.0,0.0,,,10.1017/s0252921100053872
C 60,{},{'C': 60},33.0,0.0,,,10.1017/s0252921100053872
Pu Co Ga 5,{},"{'Pu': 1, 'Co': 1, 'Ga': 5}",18.5,0.0,,,10.1017/s0252921100053872
Mg B 2,{},"{'Mg': 1, 'B': 2}",42.0,0.0,,,10.1017/s0252921100053872
La 2-x Sr x Cu O 4,{'x': []},,1.5,0.0,,,10.1017/s0252921100053872
Mg B 2,{},"{'Mg': 1, 'B': 2}",40.0,0.0,,,10.1017/s0252921100053872
Ba 1-x K x Bi O 3,{'x': [0.35]},"{'Ba': 0.65, 'K': 0.35, 'Bi': 1, 'O': 3}",30.0,0.0,,,10.1017/s0252921100053872
U Pt 3,{},"{'U': 1, 'Pt': 3}",1.0,0.0,,,10.1017/s0252921100053872
Cs 3 C 60,{},"{'Cs': 3, 'C': 60}",40.0,0.0,,,10.1017/s0252921100053872
K Os 2 O 6,{},"{'K': 1, 'Os': 2, 'O': 6}",9.6,0.0,,,10.1017/s0252921100053872
La 2-x Sr x Cu O 4,{'x': [0.08]},"{'La': 1.92, 'Sr': 0.08, 'Cu': 1, 'O': 4}",20.0,0.0,,,10.1103/physrevb.75.014514
Y Ba,{},"{'Y': 1, 'Ba': 1}",65.0,0.0,,,10.1063/1.1850383
Y Ba 2 Cu 3 O 7,{},"{'Y': 1, 'Ba': 2, 'Cu': 3, 'O': 7}",90.0,0.0,,,10.1063/1.1850383
Mg B 2,{},"{'Mg': 1, 'B': 2}",36.0,0.0,"polycrystalline, films",,10.1063/1.1794357
Mg B 2,{},"{'Mg': 1, 'B': 2}",36.0,0.0,films,,10.1063/1.1794357
Mg B 2,{},"{'Mg': 1, 'B': 2}",27.0,0.0,film,,10.1063/1.1794357
Tl 2 Ba 2 Cu O 6,{},"{'Tl': 2, 'Ba': 2, 'Cu': 1, 'O': 6}",90.0,0.0,,,10.1088/1367-2630/11/5/055057
Tl 2 Ba 2 Cu O 6,{},"{'Tl': 2, 'Ba': 2, 'Cu': 1, 'O': 6}",15.0,0.0,,,10.1088/1367-2630/11/5/055057
Tl 2 Ba 2 Cu O 6+δ,{'δ': []},,15.0,0.0,single crystal,,10.1088/1367-2630/11/5/055057
Bi 2 Sr 2 Ca 2 Cu 3 O 10,{},"{'Bi': 2, 'Sr': 2, 'Ca': 2, 'Cu': 3, 'O': 10}",107.0,0.0,,,10.1103/physrevlett.89.277001
Ti Se 2,{},"{'Ti': 1, 'Se': 2}",4.2,0.0,,,10.1103/physrevlett.98.117007
U Pt 3,{},"{'U': 1, 'Pt': 3}",0.55,0.0,,,10.1103/physrevb.60.10527
(Bi 1-y Pb y) 2 Sr 2 Cu O 6+δ,"{'δ': [], 'y': []}",,15.0,0.0,,,10.1143/jpsj.77.054710
Bi 2 Sr 2 Ca Cu 2 O 8,{},"{'Bi': 2, 'Sr': 2, 'Ca': 1, 'Cu': 2, 'O': 8}",73.0,0.0,,,10.1143/jpsj.77.054710
Sr 2 Ru O 4,{},"{'Sr': 2, 'Ru': 1, 'O': 4}",1.5,0.0,,,10.1103/physrevb.97.014503
Fe B 4,{},"{'Fe': 1, 'B': 4}",41.0,0.0,,,10.1103/physrevb.97.014503
F S F s,{'s': []},,2.0,0.0,,,10.1103/physrevb.97.014503
Fe B 4,{},"{'Fe': 1, 'B': 4}",2.4,0.0,,,10.1103/physrevb.97.014503
Tl Fe 1.6 Se 2,{},"{'Tl': 1, 'Fe': 1.6, 'Se': 2}",15.0,0.0,,,10.1103/physrevb.96.064109
K 1-y Fe 2-x Se 2,"{'x': [], 'y': []}",,30.0,0.0,,,10.1103/physrevb.96.064109
Rb 1-y Fe 2-x Se 2,"{'x': [], 'y': []}",,30.0,0.0,,,10.1103/physrevb.96.064109
Cs 1-y Fe 2-x Se 2,"{'x': [], 'y': []}",,30.0,0.0,,,10.1103/physrevb.96.064109
K x Fe 2-y Se 2,"{'x': [], 'y': []}",,48.0,10.0,,,10.1103/physrevb.96.064109
Rb x Fe 2-y Se 2,"{'x': [], 'y': []}",,48.0,10.0,,,10.1103/physrevb.96.064109
Cs x Fe 2-y Se 2,"{'x': [], 'y': []}",,48.0,10.0,,,10.1103/physrevb.96.064109
Mg B 2,{},"{'Mg': 1, 'B': 2}",40.0,0.0,,,10.1209/epl/i2001-00598-7
Bi 2 Sr 2 Cu O 6,{},"{'Bi': 2, 'Sr': 2, 'Cu': 1, 'O': 6}",7.0,0.0,,,
Bi 2 Sr 2 Cu O 6,{},"{'Bi': 2, 'Sr': 2, 'Cu': 1, 'O': 6}",20.0,0.0,thin film,,
La,{},{'La': 1},8.0,0.0,,,
Li Fe As,{},"{'Li': 1, 'Fe': 1, 'As': 1}",17.0,0.0,,,10.1143/jpsj.80.033705
Na Fe As,{},"{'Na': 1, 'Fe': 1, 'As': 1}",17.0,0.0,,,10.1143/jpsj.80.033705
Nb 2 Pd 0.963 S 4.967,{},"{'Nb': 2, 'Pd': 0.963, 'S': 4.967}",7.43,0.0,,,10.1021/ja4062079
Sr 2 Ru O 4,{},"{'Sr': 2, 'Ru': 1, 'O': 4}",1.0,0.0,,,10.1103/physrevlett.83.3320
Y Ni 2 B 2 C,{},"{'Y': 1, 'Ni': 2, 'B': 2, 'C': 1}",15.6,0.0,,,10.1143/jpsj.81.063701
Y Ba 2 Cu 3 O 6.95,{},"{'Y': 1, 'Ba': 2, 'Cu': 3, 'O': 6.95}",91.0,0.0,,,10.1103/physrevb.69.024514
Y Ba 2 Cu 3 O 6.6,{},"{'Y': 1, 'Ba': 2, 'Cu': 3, 'O': 6.6}",57.0,0.0,,,10.1103/physrevb.69.024514
Mg (Pt 1-x Au x) Si,{'x': []},,2.9,0.0,,,10.1103/physrevb.91.174514
Mg Pt Si,{},"{'Mg': 1, 'Pt': 1, 'Si': 1}",2.5,0.0,,,10.1103/physrevb.91.174514
U Rh Ge,{},"{'U': 1, 'Rh': 1, 'Ge': 1}",0.25,0.0,,,10.1103/physrevb.91.174514
Ir Ge,{},"{'Ir': 1, 'Ge': 1}",4.7,0.0,,,10.1103/physrevb.91.174514
Mg B 2,{},"{'Mg': 1, 'B': 2}",39.0,0.0,,,10.1103/physrevb.91.174514
Mg Al Si,{},"{'Mg': 1, 'Al': 1, 'Si': 1}",6.0,0.0,,,10.1103/physrevb.91.174514
U Co Ge,{},"{'U': 1, 'Co': 1, 'Ge': 1}",0.8,0.0,,,10.1103/physrevb.91.174514
Ru 1-x Rh x P,{'x': []},,3.7,0.0,,,10.1103/physrevb.91.174514
(Mg 1-x Al x) Si,{'x': []},,6.0,0.0,,,10.1103/physrevb.91.174514
Cr As,{},"{'Cr': 1, 'As': 1}",2.2,0.0,,,10.1103/physrevb.91.174514
Cs 3 C 60,{},"{'Cs': 3, 'C': 60}",40.0,0.0,,,10.1103/physrevb.70.140504
La Fe As O 1-x F x,{'x': []},,26.0,0.0,,,10.1103/physrevb.82.064517
Sm Fe As O,{},"{'Sm': 1, 'Fe': 1, 'As': 1, 'O': 1}",50.0,0.0,,,10.1103/physrevb.82.064517
La Fe As O,{},"{'La': 1, 'Fe': 1, 'As': 1, 'O': 1}",56.0,0.0,,,10.1103/physrevb.82.064517
Sm 0.65 Th 0.35 Fe As O,{},"{'Sm': 0.65, 'Th': 0.35, 'Fe': 1, 'As': 1, 'O': 1}",53.0,0.0,,,10.1103/physrevb.82.064517
Na x W O 3,{'x': []},,91.0,0.0,,,
Nd Ba 2 Cu 3 O 7,{},"{'Nd': 1, 'Ba': 2, 'Cu': 3, 'O': 7}",95.0,0.0,,,
Pr O Bi S 2,{},"{'Pr': 1, 'O': 1, 'Bi': 1, 'S': 2}",0.13,0.0,,,10.1016/j.ssc.2016.07.017
Ce O Bi S 2,{},"{'Ce': 1, 'O': 1, 'Bi': 1, 'S': 2}",1.2,0.0,,,10.1016/j.ssc.2016.07.017
La O Bi S 2,{},"{'La': 1, 'O': 1, 'Bi': 1, 'S': 2}",1.2,0.0,,,10.1016/j.ssc.2016.07.017
La O Bi S 2,{},"{'La': 1, 'O': 1, 'Bi': 1, 'S': 2}",0.13,0.0,,,10.1016/j.ssc.2016.07.017
Ce O Bi S 2,{},"{'Ce': 1, 'O': 1, 'Bi': 1, 'S': 2}",1.8,0.0,,,10.1016/j.ssc.2016.07.017
Pr O Bi S 2,{},"{'Pr': 1, 'O': 1, 'Bi': 1, 'S': 2}",0.13,0.0,poly-crystalline,,10.1016/j.ssc.2016.07.017
Ca 10 (Pt 4-δ As 8) ((Fe 0.97 Pt 0.03) 2 As 2) 5,{'δ': [0.246]},"{'Ca': 10, 'Pt': 4.054, 'As': 18, 'Fe': 9.7}",26.5,0.0,,,
Ca 10 (Pt 3 As 8) ((Fe 1-x Pt x) 2 As 2) 5,{'x': []},,10.0,0.0,,,
Y Ba 2 Cu 3 O 7-δ,{'δ': []},,93.1,0.0,,,10.1103/physrevb.72.214504
Mg B 2,{},"{'Mg': 1, 'B': 2}",20.0,0.0,,,10.12693/aphyspola.117.7
Mg B 12,{},"{'Mg': 1, 'B': 12}",37.0,0.0,,,10.12693/aphyspola.117.7
P H 2,{},"{'P': 1, 'H': 2}",49.0,0.0,,,10.1021/jacs.5b10180
P H 2,{},"{'P': 1, 'H': 2}",30.0,83.0,,,10.1021/jacs.5b10180
Pt 4 As 8,{},"{'Pt': 4, 'As': 8}",26.0,0.0,,,10.1002/adma.201305154
Bi 2 Sr 2 Ca Cu 2 O 8,{},"{'Bi': 2, 'Sr': 2, 'Ca': 1, 'Cu': 2, 'O': 8}",90.0,0.0,thin film,,10.1103/physrevb.82.134505
La 2 Cu O 4,{},"{'La': 2, 'Cu': 1, 'O': 4}",40.0,0.0,,,10.1103/physrevlett.87.047003
Ce Co In 5,{},"{'Ce': 1, 'Co': 1, 'In': 5}",2.0,0.0,thin film,,10.1103/physrevlett.120.187002
Ce Co In 5,{},"{'Ce': 1, 'Co': 1, 'In': 5}",2.3,0.0,,,10.1103/physrevlett.120.187002
Sm Fe As O 1-x F x,{'x': []},,55.0,0.0,,,10.1103/physrevlett.101.216402
La Fe P O,{},"{'La': 1, 'Fe': 1, 'P': 1, 'O': 1}",6.0,0.0,,,10.1103/physrevlett.101.216402
La Fe P O,{},"{'La': 1, 'Fe': 1, 'P': 1, 'O': 1}",7.0,0.0,,,10.1103/physrevlett.101.216402
La Fe As O,{},"{'La': 1, 'Fe': 1, 'As': 1, 'O': 1}",25.0,0.0,,,10.1103/physrevlett.101.216402
Sm O 0.85 Fe As,{},"{'Sm': 1, 'O': 0.85, 'Fe': 1, 'As': 1}",55.0,0.0,,,10.1103/physrevb.80.014508
Mg B 2,{},"{'Mg': 1, 'B': 2}",39.0,0.0,,,10.1063/1.1590734
Sr Fe 2-x Ni x As 2,{'x': []},,10.0,0.0,,,10.1103/physrevb.81.024518
Sr Fe 2-x Pd x As 2,{'x': []},,10.0,0.0,,,10.1103/physrevb.81.024518
Mg B 2,{},"{'Mg': 1, 'B': 2}",38.27,0.0,,,10.1088/0953-2048/22/1/015016
Mg B 2,{},"{'Mg': 1, 'B': 2}",34.93,0.0,,,10.1088/0953-2048/22/1/015016
La 1.86 Sr 0.14 Cu 0.988 Zn 0.012 O 4,{},"{'La': 1.86, 'Sr': 0.14, 'Cu': 0.988, 'Zn': 0.012, 'O': 4}",19.0,0.0,,,
La 1.86 Sr 0.14 Cu O 4,{},"{'La': 1.86, 'Sr': 0.14, 'Cu': 1, 'O': 4}",33.0,0.0,,,
Y Ba 2 Cu 3 O 6.5,{},"{'Y': 1, 'Ba': 2, 'Cu': 3, 'O': 6.5}",52.0,0.0,,,
Y Ba 2 Cu 3 O 6.7,{},"{'Y': 1, 'Ba': 2, 'Cu': 3, 'O': 6.7}",67.0,0.0,,,
Ce Cu 2 Si 2,{},"{'Ce': 1, 'Cu': 2, 'Si': 2}",2.4,0.0,,,10.1103/physrevb.69.024508
Ce Cu 2 Si 2,{},"{'Ce': 1, 'Cu': 2, 'Si': 2}",0.7,0.0,,,10.1103/physrevb.69.024508
Y Ba 2 Cu 3 O 6+x,{'x': [0.08]},"{'Y': 1, 'Ba': 2, 'Cu': 3, 'O': 6.08}",30.0,0.0,crystals,,10.1134/1.558777
Cu 3 O 6+x,{'x': [0.08]},"{'Cu': 3, 'O': 6.08}",30.0,0.0,,,10.1134/1.558777
Sr x Bi 2 Se 3,{'x': []},,2.7,0.0,,,10.1088/1674-1056/24/7/077401
Fe Se,{},"{'Fe': 1, 'Se': 1}",8.0,0.0,,,10.1103/physrevlett.119.267001
La Ba Cu O,{},"{'La': 1, 'Ba': 1, 'Cu': 1, 'O': 1}",35.0,0.0,,,10.1016/j.physletb.2013.11.066
Sm Fe As O x F 1-x,{'x': []},,55.0,0.0,,,10.1134/s0021364009060071
Eu Fe 2 As 2,{},"{'Eu': 1, 'Fe': 2, 'As': 2}",32.0,0.0,,,10.1134/s0021364009060071
La O Fe P,{},"{'La': 1, 'O': 1, 'Fe': 1, 'P': 1}",4.0,0.0,,,10.1134/s0021364009060071
Ba Fe 2 As 2,{},"{'Ba': 1, 'Fe': 2, 'As': 2}",38.0,0.0,,,10.1134/s0021364009060071
Eu 0.5 K 0.5 Fe 2 As 2,{},"{'Eu': 0.5, 'K': 0.5, 'Fe': 2, 'As': 2}",31.0,0.0,,,10.1134/s0021364009060071
Li Fe As,{},"{'Li': 1, 'Fe': 1, 'As': 1}",15.0,0.0,,,10.1038/nphys3187
K 2 Cr 3 As 3,{},"{'K': 2, 'Cr': 3, 'As': 3}",6.1,0.0,,,10.1103/physrevx.5.011013
Si,{},{'Si': 1},1.8,0.0,,,10.1103/physrevx.4.011033
Rb 0.82 Fe 1.68 Se 2,{},"{'Rb': 0.82, 'Fe': 1.68, 'Se': 2}",32.0,0.0,,,10.1103/physrevb.83.220515
Rb 0.82 Fe 1.68 Se 2,{},"{'Rb': 0.82, 'Fe': 1.68, 'Se': 2}",6.0,0.0,,,10.1103/physrevb.83.220515
Fe Se,{},"{'Fe': 1, 'Se': 1}",8.0,0.0,,,10.1088/1367-2630/aa6d9d
Ta,{},{'Ta': 1},9.2,0.0,,,
Ge,{},{'Ge': 1},9.2,0.0,,,
Nb,{},{'Nb': 1},9.2,0.0,bilayer,,
Ta,{},{'Ta': 1},9.2,0.0,bilayer,,
Nb,{},{'Nb': 1},9.2,0.0,films,Si,
Mg B 2,{},"{'Mg': 1, 'B': 2}",39.0,0.0,,,10.1143/jpsj.70.3184
B 3,{},{'B': 3},10.7,0.0,,,10.1088/1742-6596/43/1/329
Al,{},{'Al': 1},1.18,0.0,,,10.1088/1361-6668/ab6179
Al,{},{'Al': 1},1.05,0.0,,,10.1088/1361-6668/ab6179
Nb N,{},"{'Nb': 1, 'N': 1}",7.2,0.0,,,10.1088/1361-6668/ab6179
In,{},{'In': 1},3.4,0.0,,,10.1063/1.4794999
Zn,{},{'Zn': 1},0.87,0.0,,,10.1063/1.4794999
K 0.8 Fe 1.6 Se 2,{},"{'K': 0.8, 'Fe': 1.6, 'Se': 2}",31.0,0.0,,,10.1103/physrevb.87.184502
Fe As,{},"{'Fe': 1, 'As': 1}",26.0,0.0,,,10.1103/physrevb.87.184502
Gd 1-x Th x O Fe As,{'x': []},,56.0,0.0,,,10.1103/physrevb.87.184502
Pr Os 4 Sb 12,{},"{'Pr': 1, 'Os': 4, 'Sb': 12}",1.85,0.0,,,10.1103/physrevlett.90.027001
La Os 4 Sb 12,{},"{'La': 1, 'Os': 4, 'Sb': 12}",0.75,0.0,,,10.1103/physrevlett.90.027001
Pr Ru 4 Sb 12,{},"{'Pr': 1, 'Ru': 4, 'Sb': 12}",1.3,0.0,,,10.1103/physrevlett.90.027001
Mg B 2,{},"{'Mg': 1, 'B': 2}",40.0,0.0,,,10.1103/physrevb.65.132506
Mg B 2,{},"{'Mg': 1, 'B': 2}",7.0,0.0,,,10.1103/physrevb.65.132506
Mg B 2,{},"{'Mg': 1, 'B': 2}",38.0,0.0,,,10.1103/physrevb.65.132506
H 3 S,{},"{'H': 3, 'S': 1}",50.0,0.0,,,10.1103/physrevb.91.224513
H 2 S,{},"{'H': 2, 'S': 1}",190.0,170.0,,,10.1103/physrevb.91.224513
In,{},{'In': 1},3.41,0.0,,,
Ba Cu 3 Br 2 O 4,{},"{'Ba': 1, 'Cu': 3, 'Br': 2, 'O': 4}",60.0,0.0,,,
Ce In 3,{},"{'Ce': 1, 'In': 3}",0.2,0.0,,,10.1103/physrevlett.105.246404
H 3 S,{},"{'H': 3, 'S': 1}",203.0,170.0,,,10.3390/condmat4020043
La H 10,{},"{'La': 1, 'H': 10}",260.0,170.0,,,10.3390/condmat4020043
Sr C 6,{},"{'Sr': 1, 'C': 6}",1.65,0.0,,,10.1016/j.physc.2015.02.029
Ba C 6,{},"{'Ba': 1, 'C': 6}",80.0,0.0,,,10.1016/j.physc.2015.02.029
Sr C 6,{},"{'Sr': 1, 'C': 6}",0.2,0.0,,,10.1016/j.physc.2015.02.029
Ba C 6,{},"{'Ba': 1, 'C': 6}",3.0,0.0,,,10.1016/j.physc.2015.02.029
Ba 2 Cu 3 O 6.6,{},"{'Ba': 2, 'Cu': 3, 'O': 6.6}",61.0,0.0,single crys- tals,,10.1103/physrevb.85.064507
Fe Se,{},"{'Fe': 1, 'Se': 1}",8.0,0.0,,,10.1103/physrevb.100.054405
Sr Pt 4 Ge 12,{},"{'Sr': 1, 'Pt': 4, 'Ge': 12}",5.35,0.0,,,
Ba Pt 4 Ge 12,{},"{'Ba': 1, 'Pt': 4, 'Ge': 12}",5.1,0.0,,,
Sr Pt 4 Ge 12,{},"{'Sr': 1, 'Pt': 4, 'Ge': 12}",5.1,0.0,,,
Ba Pt 4 Ge 12,{},"{'Ba': 1, 'Pt': 4, 'Ge': 12}",5.3,0.0,,,
Nb,{},{'Nb': 1},7.8,0.0,films,,10.1103/physrevlett.108.107004
Nb,{},{'Nb': 1},0.05,0.0,films,,10.1103/physrevlett.108.107004
Bi 2 Sr 2 Ca Cu 2 O 8,{},"{'Bi': 2, 'Sr': 2, 'Ca': 1, 'Cu': 2, 'O': 8}",78.5,0.0,crystal,,10.1103/physrevlett.86.5136