Material,Substitutions,Composition,Tc (K),Pressure (GPa),Shape,Substrate,DOI
Hg Ba 2 Ca 2 Cu 3 O 10,{},"{'Hg': 1, 'Ba': 2, 'Ca': 2, 'Cu': 3, 'O': 10}",135.0,0.0,,,10.1023/b:josc.0000011842.21466.e5
Ta B 2,{},"{'Ta': 1, 'B': 2}",9.5,0.0,,,10.1134/1.1387521
Zr B 2,{},"{'Zr': 1, 'B': 2}",5.5,0.0,,,10.1134/1.1387521
Ta B 2,{},"{'Ta': 1, 'B': 2}",4.4,0.0,,,10.1134/1.1387521
Ta B 2,{},"{'Ta': 1, 'B': 2}",0.37,0.0,,,10.1134/1.1387521
Nb B 2,{},"{'Nb': 1, 'B': 2}",0.62,0.0,,,10.1134/1.1387521
Nb B 2,{},"{'Nb': 1, 'B': 2}",5.5,0.0,,,10.1134/1.1387521
Ba Nb O 3-x,{'x': []},,22.0,0.0,,,10.1134/1.1387521
Ce Ir In 5,{},"{'Ce': 1, 'Ir': 1, 'In': 5}",0.4,0.0,,,10.1016/s0921-4526(02)01640-x
Ce Rh 0.25 Ir 0.75 In 5,{},"{'Ce': 1, 'Rh': 0.25, 'Ir': 0.75, 'In': 5}",0.7,0.0,,,10.1016/s0921-4526(02)01640-x
Ce Co In 5,{},"{'Ce': 1, 'Co': 1, 'In': 5}",2.3,0.0,,,10.1016/s0921-4526(02)01640-x
Ru 7 B 3,{},"{'Ru': 7, 'B': 3}",2.5,0.0,single crystal,,10.1016/j.jcrysgro.2014.03.003
Y Ba 2 Cu 3 O 7,{},"{'Y': 1, 'Ba': 2, 'Cu': 3, 'O': 7}",55.0,0.0,,,10.1088/0953-2048/29/7/074001
U 2 Pt C 2,{},"{'U': 2, 'Pt': 1, 'C': 2}",1.47,0.0,,,10.2172/1233260
Zr Zn 2,{},"{'Zr': 1, 'Zn': 2}",25.0,0.0,,,10.1142/9789812792150_0017
Ni 3 Al,{},"{'Ni': 3, 'Al': 1}",72.0,0.0,,,10.1142/9789812792150_0017
Sr 2 Ru O 4,{},"{'Sr': 2, 'Ru': 1, 'O': 4}",1.5,0.0,,,10.1016/s0379-6779(02)00421-6
Fe Se 0.5 Te 0.5,{},"{'Fe': 1, 'Se': 0.5, 'Te': 0.5}",21.0,0.0,thin films,,10.1063/1.3358148
Fe Se 0.5 Te 0.5,{},"{'Fe': 1, 'Se': 0.5, 'Te': 0.5}",17.0,0.0,thin films,,10.1063/1.3358148
Li Fe As 21,{},"{'Li': 1, 'Fe': 1, 'As': 21}",18.0,0.0,,,10.1103/physrevb.85.224521
Na Fe As,{},"{'Na': 1, 'Fe': 1, 'As': 1}",10.0,0.0,,,10.1103/physrevb.85.224521
Sr 2 V O 2.65 Fe As,{},"{'Sr': 2, 'V': 1, 'O': 2.65, 'Fe': 1, 'As': 1}",33.0,0.0,,,10.1209/0295-5075/96/57002
Mg B 2,{},"{'Mg': 1, 'B': 2}",39.0,0.0,,,10.1103/physrevb.65.224519
Sr Pt 2 As 2,{},"{'Sr': 1, 'Pt': 2, 'As': 2}",5.0,0.0,single crystals,,10.1103/physrevb.87.224507
Sr Pt 2 As 2,{},"{'Sr': 1, 'Pt': 2, 'As': 2}",5.0,0.0,,,10.1103/physrevb.87.224507
Sr Pt 3 P,{},"{'Sr': 1, 'Pt': 3, 'P': 1}",8.4,0.0,,,10.1103/physrevb.87.224507
Al,{},{'Al': 1},1.0,0.0,,,10.1103/physrevb.90.060203
Sn,{},{'Sn': 1},3.7,0.0,,,10.1038/nmat3335
U Rh Ge,{},"{'U': 1, 'Rh': 1, 'Ge': 1}",9.47,0.0,,,10.1103/physrevb.89.064420
U Rh Ge,{},"{'U': 1, 'Rh': 1, 'Ge': 1}",9.5,0.0,,,10.1103/physrevb.89.064420
U Rh Ge,{},"{'U': 1, 'Rh': 1, 'Ge': 1}",9.44,0.0,,,10.1103/physrevb.89.064420
U Ge 2,{},"{'U': 1, 'Ge': 2}",52.5,0.0,,,10.1103/physrevb.89.064420
U Ir,{},"{'U': 1, 'Ir': 1}",46.0,0.0,,,10.1103/physrevb.89.064420
U Rh Ge,{},"{'U': 1, 'Rh': 1, 'Ge': 1}",0.2,0.0,,,10.1103/physrevb.89.064420
U Ge 2,{},"{'U': 1, 'Ge': 2}",52.6,0.0,,,10.1103/physrevb.89.064420
Mg B 2,{},"{'Mg': 1, 'B': 2}",38.3,0.0,,,
La Fe P O,{},"{'La': 1, 'Fe': 1, 'P': 1, 'O': 1}",7.5,0.0,,,10.1103/physrevb.85.014517
Ba (Fe 0.93 Co 0.07) 2 As 2,{},"{'Ba': 1, 'Fe': 1.86, 'Co': 0.14, 'As': 2}",24.0,0.0,,,10.1016/j.jallcom.2016.10.103
Bi 2 Sr 2 Ca Cu 2 O 8,{},"{'Bi': 2, 'Sr': 2, 'Ca': 1, 'Cu': 2, 'O': 8}",10.0,0.0,,,
Pb,{},{'Pb': 1},7.2,0.0,,,10.1007/s10948-012-1800-1
Li Fe As,{},"{'Li': 1, 'Fe': 1, 'As': 1}",16.0,0.0,single crystals,,10.1002/pssb.201600159
Mg B 2,{},"{'Mg': 1, 'B': 2}",39.0,0.0,,,10.1142/9789812777805_0035
Mg B 2,{},"{'Mg': 1, 'B': 2}",24.8,0.0,,,10.1142/9789812777805_0035
Ce Rh In 5,{},"{'Ce': 1, 'Rh': 1, 'In': 5}",2.1,16.0,,,10.1016/s0921-4526(02)02458-4
Mg B 2,{},"{'Mg': 1, 'B': 2}",38.5,0.0,crystals,,10.1103/physrevb.72.060507
Mg B 2,{},"{'Mg': 1, 'B': 2}",33.6,0.0,,,10.1103/physrevb.72.060507
Mg B 2,{},"{'Mg': 1, 'B': 2}",3.9,0.0,,,10.1103/physrevb.72.060507
Mg B 2,{},"{'Mg': 1, 'B': 2}",39.0,0.0,,,10.1103/physrevb.72.060507
Mg B 2,{},"{'Mg': 1, 'B': 2}",38.3,0.0,,,10.1103/physrevb.72.060507
Y Ba 2 Cu 3 O 7,{},"{'Y': 1, 'Ba': 2, 'Cu': 3, 'O': 7}",86.0,0.0,,,10.1126/science.1095532
Bi 2 Sr 2 Ca Cu 2 O 8,{},"{'Bi': 2, 'Sr': 2, 'Ca': 1, 'Cu': 2, 'O': 8}",86.0,0.0,crystal,,10.1126/science.1095532
Y Ba 2 Cu 3 O 6.9,{},"{'Y': 1, 'Ba': 2, 'Cu': 3, 'O': 6.9}",92.7,0.0,crystal,,10.1126/science.1095532
Bi 2 Sr 2 Ca Cu 2 O 8,{},"{'Bi': 2, 'Sr': 2, 'Ca': 1, 'Cu': 2, 'O': 8}",86.0,0.0,,,10.1126/science.1095532
Y Ba 2 Cu 3 O 6.9,{},"{'Y': 1, 'Ba': 2, 'Cu': 3, 'O': 6.9}",92.7,0.0,,,10.1126/science.1095532
Cs Fe 2 As 2,{},"{'Cs': 1, 'Fe': 2, 'As': 2}",2.6,0.0,,,10.1103/physrevmaterials.1.044804
K Fe 2 As 2,{},"{'K': 1, 'Fe': 2, 'As': 2}",3.8,0.0,,,10.1103/physrevmaterials.1.044804
La Fe As O,{},"{'La': 1, 'Fe': 1, 'As': 1, 'O': 1}",26.0,0.0,,,10.1103/physrevmaterials.1.044804
Rb Gd 2 Fe 4 As 4 O 2,{},"{'Rb': 1, 'Gd': 2, 'Fe': 4, 'As': 4, 'O': 2}",35.0,0.0,,,10.1103/physrevmaterials.1.044804
Fe S Cs,{},"{'Fe': 1, 'S': 1, 'Cs': 1}",10.0,0.0,,,10.1103/physrevmaterials.1.044804
Fe S Cs,{},"{'Fe': 1, 'S': 1, 'Cs': 1}",30.5,0.0,,,10.1103/physrevmaterials.1.044804
Fe S Cs,{},"{'Fe': 1, 'S': 1, 'Cs': 1}",38.0,0.0,,,10.1103/physrevmaterials.1.044804
K Ca 2 Fe 4 As 4 F 2,{},"{'K': 1, 'Ca': 2, 'Fe': 4, 'As': 4, 'F': 2}",28.2,0.0,,,10.1103/physrevmaterials.1.044804
Rb Ca 2 Fe 4 As 4 F 2,{},"{'Rb': 1, 'Ca': 2, 'Fe': 4, 'As': 4, 'F': 2}",28.2,0.0,,,10.1103/physrevmaterials.1.044804
Cs Ca 2 Fe 4 As 4 F 2,{},"{'Cs': 1, 'Ca': 2, 'Fe': 4, 'As': 4, 'F': 2}",28.2,0.0,,,10.1103/physrevmaterials.1.044804
K Gd 2 Fe 4 As 4 O 2,{},"{'K': 1, 'Gd': 2, 'Fe': 4, 'As': 4, 'O': 2}",37.0,0.0,,,10.1103/physrevmaterials.1.044804
Fe Se,{},"{'Fe': 1, 'Se': 1}",20.0,0.0,bulk crystal,,10.1103/physrevb.93.144515
Fe Se,{},"{'Fe': 1, 'Se': 1}",20.0,0.0,single crystal,,10.1103/physrevb.93.144515
Fe Se,{},"{'Fe': 1, 'Se': 1}",15.0,0.0,films,,10.1103/physrevb.93.144515
Fe Se,{},"{'Fe': 1, 'Se': 1}",8.0,8.9,,,10.1103/physrevb.93.144515
Nd (O 0.82 F 0.18) Fe As,{},"{'Nd': 1, 'O': 0.82, 'F': 0.18, 'Fe': 1, 'As': 1}",47.0,0.0,single crystal,,10.1103/physrevb.78.174523
In O x,{'x': []},,20.0,0.0,films,,10.1103/physrevlett.94.107008
Y Ba 2 Cu 3 O 7-δ,{'δ': []},,30.1,0.0,,,10.1088/0953-8984/19/23/236226
Na Fe 1-x Co x As,{'x': []},,20.0,0.0,,,10.1103/physrevx.5.021013
Pb,{},{'Pb': 1},7.19,0.0,,,10.1103/physrevlett.91.186406
Al,{},{'Al': 1},1.18,0.0,,,10.1103/physrevlett.91.186406
Au 0.7 In 0.3,{},"{'Au': 0.7, 'In': 0.3}",0.45,0.0,,,10.1103/physrevb.75.064509
La Fe As O 1-x F x,{'x': []},,50.0,0.0,,,
Fe Te 0.55 Se 0.45,{},"{'Fe': 1, 'Te': 0.55, 'Se': 0.45}",14.5,0.0,,,10.1088/0953-2048/27/12/124014
Mg B 2,{},"{'Mg': 1, 'B': 2}",25.0,0.0,thin films,,10.1063/1.1405431
La 2-x Sr x Cu O 4,{'x': [0.1]},"{'La': 1.9, 'Sr': 0.1, 'Cu': 1, 'O': 4}",28.6,0.0,,,
Zr B 12,{},"{'Zr': 1, 'B': 12}",6.0,0.0,,,10.1103/physrevb.72.024547
Ca Fe 2 As 2,{},"{'Ca': 1, 'Fe': 2, 'As': 2}",38.0,0.0,,,10.1007/s10948-013-2289-y
Sr Fe 2 As 2,{},"{'Sr': 1, 'Fe': 2, 'As': 2}",38.0,0.0,,,10.1007/s10948-013-2289-y
Ba Fe 2 As 2,{},"{'Ba': 1, 'Fe': 2, 'As': 2}",38.0,0.0,,,10.1007/s10948-013-2289-y
C,{},{'C': 1},1.4,0.0,,,10.1088/1361-6641/aa7f88
Li Ti 2 O 4,{},"{'Li': 1, 'Ti': 2, 'O': 4}",13.0,0.0,,,10.1143/jpsj.74.1678
Ca 3 Rh 4 Sn 13,{},"{'Ca': 3, 'Rh': 4, 'Sn': 13}",8.35,0.0,,,
In,{},{'In': 1},3.41,0.0,,,10.1063/1.3551532
Ti N,{},"{'Ti': 1, 'N': 1}",1.0,0.0,films,,10.1063/1.3551532
Y Ba 2 Cu 3 O 6+y,{'y': []},,3.0,0.0,,,10.1103/physrevlett.99.237003
C S 3 H 13,{},"{'C': 1, 'S': 3, 'H': 13}",142.0,270.0,,,
C S 3 H 13,{},"{'C': 1, 'S': 3, 'H': 13}",280.0,170.0,,,
S,{},{'S': 1},203.0,155.0,,,
H 3 S 6,{},"{'H': 3, 'S': 6}",203.0,150.0,,,
U Pd 2 Al 3,{},"{'U': 1, 'Pd': 2, 'Al': 3}",1.5,10.8,,,10.1103/physrevb.69.144503
B 2,{},{'B': 2},6.8,0.0,,,10.1063/1.2164925
B,{},{'B': 1},10.7,0.0,,,10.1063/1.2164925
La O 0.5 F 0.5 Bi S 2,{},"{'La': 1, 'O': 0.5, 'F': 0.5, 'Bi': 1, 'S': 2}",2.6,0.0,,,10.1063/1.4883755
K x Fe 2-y Se 2,"{'x': [], 'y': []}",,48.0,0.0,,,10.1038/srep32290
Cs x Fe 2-y Se 2,"{'x': [], 'y': []}",,48.0,0.0,,,10.1038/srep32290
Rb x Fe 2-y Se 2,"{'x': [], 'y': []}",,48.0,0.0,,,10.1038/srep32290
Tl x Fe 2-y Se 2,"{'x': [], 'y': []}",,48.0,0.0,,,10.1038/srep32290
K x Fe 2-y Se 2,"{'x': [], 'y': []}",,32.0,0.0,,,10.1038/srep32290
Cs x Fe 2-y Se 2,"{'x': [], 'y': []}",,32.0,0.0,,,10.1038/srep32290
Rb x Fe 2-y Se 2,"{'x': [], 'y': []}",,32.0,0.0,,,10.1038/srep32290
Tl x Fe 2-y Se 2,"{'x': [], 'y': []}",,32.0,0.0,,,10.1038/srep32290
Fe Se,{},"{'Fe': 1, 'Se': 1}",8.0,0.0,,,10.1038/srep32290
Fe 1+y Te 0.57 Se 0.43,{'y': []},,14.5,0.0,,,10.1038/srep32290
Sr 1-x K x Fe 2 As 2,{'x': []},,38.0,0.0,,,10.1209/0295-5075/84/67015
Fe Se,{},"{'Fe': 1, 'Se': 1}",8.0,0.0,Pristine,,10.1103/physrevb.100.060504
Fe Se,{},"{'Fe': 1, 'Se': 1}",48.0,0.0,,,10.1103/physrevb.100.060504
Sr Ti O 3,{},"{'Sr': 1, 'Ti': 1, 'O': 3}",100.0,0.0,,,10.1103/physrevb.100.060504
Fe Se,{},"{'Fe': 1, 'Se': 1}",2.0,1.0,,,10.1103/physrevb.100.060504
Li x (N H 3) y Fe 2 Se 2,"{'x': [], 'y': []}",,44.0,2.8,,,10.1103/physrevb.100.060504
Fe Se,{},"{'Fe': 1, 'Se': 1}",9.0,0.0,,,10.1103/physrevb.100.060504
O 2,{},{'O': 2},20.0,0.0,,,10.1016/s0921-4534(03)01067-0
Ce Co In 5,{},"{'Ce': 1, 'Co': 1, 'In': 5}",2.3,0.0,,,10.1140/epjb/e2015-60419-4
Nb N,{},"{'Nb': 1, 'N': 1}",14.9,0.0,films,,10.1103/physrevb.79.094509
Ta 4 Pd 3 Te 16,{},"{'Ta': 4, 'Pd': 3, 'Te': 16}",4.6,0.0,,,10.1088/0953-8984/27/49/495701
La Al Si,{},"{'La': 1, 'Al': 1, 'Si': 1}",2.5,78.5,,,
La Al Ge,{},"{'La': 1, 'Al': 1, 'Ge': 1}",2.5,0.0,,,
La Al Si,{},"{'La': 1, 'Al': 1, 'Si': 1}",2.1,0.0,,,
La Al Si,{},"{'La': 1, 'Al': 1, 'Si': 1}",2.5,0.0,,,
La Al Ge,{},"{'La': 1, 'Al': 1, 'Ge': 1}",2.1,75.7,,,
Tl In Te 2,{},"{'Tl': 1, 'In': 1, 'Te': 2}",3.8,5.7,,,
Nb N,{},"{'Nb': 1, 'N': 1}",1.7,0.0,film,,10.1103/physrevapplied.10.064063
Y Ba 2 Cu 3 O 7,{},"{'Y': 1, 'Ba': 2, 'Cu': 3, 'O': 7}",90.0,0.0,,,10.1103/physrevb.66.134525
Nb N,{},"{'Nb': 1, 'N': 1}",12.1,0.0,thin films,,10.1063/1.4858402
Nb N,{},"{'Nb': 1, 'N': 1}",12.1,0.0,,,10.1063/1.4858402
Nb N,{},"{'Nb': 1, 'N': 1}",4.2,0.0,thin films,,10.1063/1.4858402
Nb N,{},"{'Nb': 1, 'N': 1}",12.1,0.0,films,,10.1063/1.4858402
Nb N,{},"{'Nb': 1, 'N': 1}",12.1,0.0,film,,10.1063/1.4858402
Y Ba 2 Cu 3 O 6.353,{},"{'Y': 1, 'Ba': 2, 'Cu': 3, 'O': 6.353}",18.0,0.0,,,10.1103/physrevb.73.100504
Nb N on Ga As,"{'n': [], 'o': []}",,9.6,0.0,,,10.1063/1.4984816
Bi 2 Sr 2 Ca Cu 2 O 8+δ,{'δ': []},,86.0,0.0,,,
Bi 2 Sr 2 Ca Cu 2 O 8+δ,{'δ': []},,90.0,0.0,,,
V 3 Si,{},"{'V': 3, 'Si': 1}",17.0,0.0,,,10.1088/1674-1056/24/11/117401
Li 2 Ir Si 3,{},"{'Li': 2, 'Ir': 1, 'Si': 3}",3.8,0.0,,,10.1088/1674-1056/24/11/117401
Fe Se,{},"{'Fe': 1, 'Se': 1}",8.0,0.0,single crystals,,10.1103/physrevlett.113.237001
Y Ba 2 Cu 4 O 7,{},"{'Y': 1, 'Ba': 2, 'Cu': 4, 'O': 7}",5.5,8.0,,,10.1126/sciadv.1501657
Y Ba 2 Cu 4 O 7,{},"{'Y': 1, 'Ba': 2, 'Cu': 4, 'O': 7}",105.0,0.0,,,10.1126/sciadv.1501657
Y Ba 2 Cu 3 O 7,{},"{'Y': 1, 'Ba': 2, 'Cu': 3, 'O': 7}",105.0,0.0,,,10.1126/sciadv.1501657
Y Ba 2 Cu 3 O 7,{},"{'Y': 1, 'Ba': 2, 'Cu': 3, 'O': 7}",94.0,0.0,,,10.1126/sciadv.1501657
Bi 2 Sr 2 Ca Cu 2 O 8,{},"{'Bi': 2, 'Sr': 2, 'Ca': 1, 'Cu': 2, 'O': 8}",91.0,0.0,,,10.1038/ncomms5959
Bi 2 Sr 2 Cu O 6,{},"{'Bi': 2, 'Sr': 2, 'Cu': 1, 'O': 6}",5.0,0.0,,,10.1038/ncomms5959
Bi 2 Sr 2 Ca Cu 2 O 8,{},"{'Bi': 2, 'Sr': 2, 'Ca': 1, 'Cu': 2, 'O': 8}",60.0,0.0,,,10.1038/ncomms5959
Bi 2 Sr 2 Cu O 6,{},"{'Bi': 2, 'Sr': 2, 'Cu': 1, 'O': 6}",2.0,0.0,,,10.1038/ncomms5959
Bi 2 Sr 2 Ca Cu 2 O 8,{},"{'Bi': 2, 'Sr': 2, 'Ca': 1, 'Cu': 2, 'O': 8}",17.0,0.0,,,10.1038/ncomms5959
Sr Ca Cu 2 O 8+δ,{'δ': []},,91.0,0.0,,,10.1038/ncomms5959
Hg Ba 2 Ca Cu 2 O 8,{},"{'Hg': 1, 'Ba': 2, 'Ca': 1, 'Cu': 2, 'O': 8}",93.0,0.0,,,10.1103/physrevb.95.094501
Hg Ba 2 Ca Cu 2 O 8,{},"{'Hg': 1, 'Ba': 2, 'Ca': 1, 'Cu': 2, 'O': 8}",103.0,0.0,,,10.1103/physrevb.95.094501
Hg Ba 2 Ca Cu 2 O 8,{},"{'Hg': 1, 'Ba': 2, 'Ca': 1, 'Cu': 2, 'O': 8}",127.0,0.0,,,10.1103/physrevb.95.094501
La 1.6-x Nd 0.4 Sr x Cu O 4,{'x': []},,70.0,0.0,,,10.1103/physrevb.95.094501
Sm Fe As O,{},"{'Sm': 1, 'Fe': 1, 'As': 1, 'O': 1}",55.0,0.0,,,10.1088/1367-2630/12/3/033005
Y Ba 2 Cu 4 O 8,{},"{'Y': 1, 'Ba': 2, 'Cu': 4, 'O': 8}",80.0,0.0,,,10.1103/physrevb.90.140501
Gd 1-x Th x Fe As O,{'x': []},,56.0,0.0,,,10.1103/physrevlett.101.117004
Sm Fe As O 0.85,{},"{'Sm': 1, 'Fe': 1, 'As': 1, 'O': 0.85}",55.0,0.0,,,10.1103/physrevlett.101.117004
Sm Fe As O 0.9 F 0.1,{},"{'Sm': 1, 'Fe': 1, 'As': 1, 'O': 0.9, 'F': 0.1}",55.0,0.0,,,10.1103/physrevlett.101.117004
La Fe As O 1-x F x,{'x': [0.11]},"{'La': 1, 'Fe': 1, 'As': 1, 'O': 0.89, 'F': 0.11}",26.0,0.0,,,10.1103/physrevlett.101.117004
La Fe As O 0.89 F 0.11,{},"{'La': 1, 'Fe': 1, 'As': 1, 'O': 0.89, 'F': 0.11}",4.5,0.0,,,10.1103/physrevlett.101.117004
Al,{},{'Al': 1},2.0,0.0,film,,10.1063/1.5063862
U Ni 2 Al 3,{},"{'U': 1, 'Ni': 2, 'Al': 3}",1.0,0.0,,,10.1063/1.5063862
Al,{},{'Al': 1},2.0,0.0,thin film,,10.1063/1.5063862
Ce 2 Pd In 8,{},"{'Ce': 2, 'Pd': 1, 'In': 8}",0.69,0.0,crystal,,10.1016/j.intermet.2010.03.017
Ce 2 Pd In 8,{},"{'Ce': 2, 'Pd': 1, 'In': 8}",68.0,0.0,,,10.1016/j.intermet.2010.03.017
Ce 2 Pd In 8,{},"{'Ce': 2, 'Pd': 1, 'In': 8}",0.68,0.0,,,10.1016/j.intermet.2010.03.017
Mg B 2 C,{},"{'Mg': 1, 'B': 2, 'C': 1}",9.2,0.0,,,10.1103/physrevb.72.174518
Bi 2 Se 3,{},"{'Bi': 2, 'Se': 3}",2.9,0.0,,,10.1103/physrevb.92.100508
Fe Se,{},"{'Fe': 1, 'Se': 1}",20.0,0.0,,,10.1103/physrevb.93.115138
Y 0.9 Ca 0.1 Ba 2 Cu 3 O 7-y,{'y': []},,85.5,0.0,,,10.1080/14786430412331293513
La 2-x Sr x Cu O 4,{'x': []},,30.0,0.0,,,
At 6,{},{'At': 6},24.0,0.0,,,10.1103/physrevb.80.180510
Li Fe As 5,{},"{'Li': 1, 'Fe': 1, 'As': 5}",18.0,0.0,,,10.1088/0953-8984/25/16/162204
Li Fe As,{},"{'Li': 1, 'Fe': 1, 'As': 1}",18.0,0.0,single crystal,,10.1088/0953-8984/25/16/162204
Li x Hf N Cl,{'x': []},,24.9,0.0,,,10.1103/physrevb.98.064512
Li x Hf N Cl,{'x': []},,40.0,0.0,,,10.1103/physrevb.98.064512
Li x Hf N Cl,{'x': [0.28]},"{'Li': 0.28, 'Hf': 1, 'N': 1, 'Cl': 1}",19.4,0.0,,,10.1103/physrevb.98.064512
Nd (O 0.89 F 0.11) Fe As,{},"{'Nd': 1, 'O': 0.89, 'F': 0.11, 'Fe': 1, 'As': 1}",51.0,0.0,,,10.1103/physrevb.78.184501
Ba Fe 1.84 Co 0.16 As 2,{},"{'Ba': 1, 'Fe': 1.84, 'Co': 0.16, 'As': 2}",25.0,0.0,,,10.1143/jpsj.81.024718
Ba Fe 2 As 2,{},"{'Ba': 1, 'Fe': 2, 'As': 2}",55.0,0.0,,,10.1143/jpsj.81.024718
Ca K Fe 4 As 4,{},"{'Ca': 1, 'K': 1, 'Fe': 4, 'As': 4}",35.0,0.0,,,10.1103/physrevb.95.064512
Ba 0.5 K 0.5 Fe 2 As 2,{},"{'Ba': 0.5, 'K': 0.5, 'Fe': 2, 'As': 2}",38.0,0.0,,,
Ba 0.5 K 0.5 Fe 2 As 2,{},"{'Ba': 0.5, 'K': 0.5, 'Fe': 2, 'As': 2}",36.0,0.0,,,
Ba 0.7 La 0.3 Fe 2 As 2,{},"{'Ba': 0.7, 'La': 0.3, 'Fe': 2, 'As': 2}",5.0,0.0,,,
Mg B 2,{},"{'Mg': 1, 'B': 2}",39.0,0.0,,,10.1088/0953-2048/22/1/014001
Cs V 3 Sb 5,{},"{'Cs': 1, 'V': 3, 'Sb': 5}",2.8,0.0,,,
Cs V 3 Sb 5,{},"{'Cs': 1, 'V': 3, 'Sb': 5}",4.2,0.0,,,
K V 3 Sb 5,{},"{'K': 1, 'V': 3, 'Sb': 5}",1.0,0.0,,,
Mo 3 Sb 7,{},"{'Mo': 3, 'Sb': 7}",2.25,0.0,,,10.1016/j.actamat.2008.07.048
K 3-picene,"{'i': [], 'c': [], 'n': [], 'p': [], 'e': []}",,7.0,0.0,,,10.1103/physrevlett.107.137006
Cs 3 C 60,{},"{'Cs': 3, 'C': 60}",40.0,0.0,,,10.1103/physrevlett.107.137006
Cu (N (C N) 2) Br,{},"{'Cu': 1, 'N': 3, 'C': 2, 'Br': 1}",10.0,0.0,,,
Cu (N (C N) 2) Cl,{},"{'Cu': 1, 'N': 3, 'C': 2, 'Cl': 1}",10.0,0.0,,,
Mo 3 Rh 2 N,{},"{'Mo': 3, 'Rh': 2, 'N': 1}",4.6,0.0,,,10.1103/physrevb.98.180504
N C S C Mo 3 Rh 2 N,{},"{'N': 2, 'C': 2, 'S': 1, 'Mo': 3, 'Rh': 2}",4.6,0.0,,,10.1103/physrevb.98.180504
Cr As,{},"{'Cr': 1, 'As': 1}",2.0,0.0,,,10.1103/physrevb.100.094511
K 2 Mo 3 As 3,{},"{'K': 2, 'Mo': 3, 'As': 3}",10.3,0.0,,,10.1103/physrevb.100.094511
Na 2 Cr 3 As 3,{},"{'Na': 2, 'Cr': 3, 'As': 3}",8.6,0.0,,,10.1103/physrevb.100.094511
Rb Cr 3 As 3,{},"{'Rb': 1, 'Cr': 3, 'As': 3}",7.17,0.0,single crystal,,10.1103/physrevb.100.094511
S,{},{'S': 1},10.1,93.0,,,
S,{},{'S': 1},17.0,160.0,,,
Y Ba 2 Cu 3 O 6.83,{},"{'Y': 1, 'Ba': 2, 'Cu': 3, 'O': 6.83}",45.0,0.0,,,10.1103/physrevb.68.094519
Np O 2,{},"{'Np': 1, 'O': 2}",25.5,0.0,,,10.1103/physrevb.71.165102
Np O 2,{},"{'Np': 1, 'O': 2}",100.0,0.0,,,10.1103/physrevb.71.165102
Yb In Cu 4,{},"{'Yb': 1, 'In': 1, 'Cu': 4}",100.0,0.0,,,10.1103/physrevb.71.165102
Ce Ir In 5,{},"{'Ce': 1, 'Ir': 1, 'In': 5}",0.4,0.0,,,10.1143/jpsj.71.1140
Ce Co In 5,{},"{'Ce': 1, 'Co': 1, 'In': 5}",2.3,0.0,,,10.1143/jpsj.71.1140
Ce Rh In 5,{},"{'Ce': 1, 'Rh': 1, 'In': 5}",0.4,0.0,,,10.1103/physrevb.68.012504
Ce Co In 5,{},"{'Ce': 1, 'Co': 1, 'In': 5}",2.3,0.0,,,10.1103/physrevb.68.012504
Mg B,{},"{'Mg': 1, 'B': 1}",33.7,0.0,thin films,,10.1016/j.physc.2007.11.047
Mg B 2,{},"{'Mg': 1, 'B': 2}",31.0,0.0,thin films,,10.1016/j.physc.2007.11.047
Mg B 2,{},"{'Mg': 1, 'B': 2}",32.0,0.0,thin films,,10.1016/j.physc.2007.11.047
Mg B 2,{},"{'Mg': 1, 'B': 2}",33.7,0.0,thin films,,10.1016/j.physc.2007.11.047
Mg B 2,{},"{'Mg': 1, 'B': 2}",1.0,0.0,thin films,,10.1016/j.physc.2007.11.047
Mg B,{},"{'Mg': 1, 'B': 1}",31.0,0.0,thin films,,10.1016/j.physc.2007.11.047
Mg B 2,{},"{'Mg': 1, 'B': 2}",32.0,0.0,,,10.1016/j.physc.2007.11.047
Ho Ni 2 B 2 C,{},"{'Ho': 1, 'Ni': 2, 'B': 2, 'C': 1}",8.0,0.0,,,
Er Ni 2 B 2 C,{},"{'Er': 1, 'Ni': 2, 'B': 2, 'C': 1}",2.2,0.0,,,
Fe Se,{},"{'Fe': 1, 'Se': 1}",14.0,0.0,,,10.1088/0953-2048/24/4/045009
Fe Se 0.5 Te 0.5,{},"{'Fe': 1, 'Se': 0.5, 'Te': 0.5}",14.9,0.0,polycrystalline,,10.1088/0953-2048/24/4/045009
Fe Se,{},"{'Fe': 1, 'Se': 1}",8.0,0.0,,,10.1088/0953-2048/24/4/045009
Sn Te,{},"{'Sn': 1, 'Te': 1}",0.024,0.0,,,10.1016/j.physc.2015.02.018
Mg B 2,{},"{'Mg': 1, 'B': 2}",6.0,0.0,,,10.1103/physrevb.75.134503
Zr B 12,{},"{'Zr': 1, 'B': 12}",6.0,0.0,,,10.1103/physrevb.75.134503
Bi 2 Sr 2 Ca Cu 2 O 8,{},"{'Bi': 2, 'Sr': 2, 'Ca': 1, 'Cu': 2, 'O': 8}",90.0,0.0,single-crystals,,10.1103/physrevlett.115.137003
Ce Ir In 5,{},"{'Ce': 1, 'Ir': 1, 'In': 5}",0.4,0.0,,,10.1103/physrevlett.112.067002
Sr 3 Ir 4 Sn 13,{},"{'Sr': 3, 'Ir': 4, 'Sn': 13}",5.0,0.0,,,10.1103/physrevb.90.144505
Ca 3 Ir 4 Sn 13,{},"{'Ca': 3, 'Ir': 4, 'Sn': 13}",7.0,0.0,,,10.1103/physrevb.90.144505
Ca 3 Ir 4 Sn 13,{},"{'Ca': 3, 'Ir': 4, 'Sn': 13}",8.9,4.0,,,10.1103/physrevb.90.144505
Nb 3 Ge,{},"{'Nb': 3, 'Ge': 1}",23.0,0.0,,,10.1117/12.623139
Nb N,{},"{'Nb': 1, 'N': 1}",16.0,0.0,,,10.1117/12.623139
Ba Fe 2 As 2,{},"{'Ba': 1, 'Fe': 2, 'As': 2}",30.5,5.5,,,
Pr Os 4 Sb 12,{},"{'Pr': 1, 'Os': 4, 'Sb': 12}",1.82,0.0,,,10.1103/physrevlett.91.067003
La Os 4 Sb 12,{},"{'La': 1, 'Os': 4, 'Sb': 12}",0.74,0.0,,,10.1103/physrevlett.91.067003
Zr B 2,{},"{'Zr': 1, 'B': 2}",5.5,0.0,,,10.1134/1.2010666
Zr B 12,{},"{'Zr': 1, 'B': 12}",6.0,0.0,,,10.1134/1.2010666
Sn,{},{'Sn': 1},3.7,0.0,,,10.1103/physrevb.83.220506
La 3 Ni 4 O 2 P 4,{},"{'La': 3, 'Ni': 4, 'O': 2, 'P': 4}",2.2,0.0,,,10.1103/physrevb.79.024516
Li x Fe As,{'x': []},,18.0,0.0,,,10.1103/physrevb.79.024516
(Sr Ba) 1-x K x Fe 2 As 2,{'x': []},,38.0,0.0,,,10.1103/physrevb.79.024516
Sm Fe As O,{},"{'Sm': 1, 'Fe': 1, 'As': 1, 'O': 1}",55.0,0.0,,,10.1103/physrevb.79.024516
(Ba Sr) 1-x K x Fe 2 As 2,{'x': []},,38.0,0.0,,,10.1103/physrevb.79.024516
C 6 Yb,{},"{'C': 6, 'Yb': 1}",6.5,0.0,,,10.1002/pssb.201200142
C 6 Ca,{},"{'C': 6, 'Ca': 1}",11.5,0.0,poly-crystals,,10.1002/pssb.201200142
C 8 K,{},"{'C': 8, 'K': 1}",1.0,0.0,,,10.1002/pssb.201200142
C 8 Rb,{},"{'C': 8, 'Rb': 1}",1.0,0.0,,,10.1002/pssb.201200142
C 8 Cs,{},"{'C': 8, 'Cs': 1}",1.0,0.0,,,10.1002/pssb.201200142
Na,{},{'Na': 1},5.0,0.0,,,10.1002/pssb.201200142
K Tl 1.5 C 4,{},"{'K': 1, 'Tl': 1.5, 'C': 4}",2.7,0.0,,,10.1002/pssb.201200142
K 3,{},{'K': 3},7.0,0.0,,,
La Sr Cu O,{},"{'La': 1, 'Sr': 1, 'Cu': 1, 'O': 1}",25.0,0.0,,,10.1007/s10948-011-1363-6
Mg B 2,{},"{'Mg': 1, 'B': 2}",37.0,0.0,single crystals,,10.1103/physrevb.73.064520
Mg 1-x Al x B 2,{'x': [0.21]},"{'Mg': 0.79, 'Al': 0.21, 'B': 2}",25.5,0.0,single crystals,,10.1103/physrevb.73.064520
Nb,{},{'Nb': 1},9.22,0.0,thin films,,10.1063/1.2168670
Ce Co In 5,{},"{'Ce': 1, 'Co': 1, 'In': 5}",2.3,0.0,,,10.1063/1.2168670
K 3.3,{},{'K': 3.3},7.0,0.0,,,10.1103/physrevb.86.214507
K 3,{},{'K': 3},18.0,0.0,,,10.1103/physrevb.86.214507
K 3,{},{'K': 3},7.0,0.0,,,10.1103/physrevb.86.214507
K,{},{'K': 1},5.0,0.0,,,10.1103/physrevb.86.214507
K 3.45,{},{'K': 3.45},33.0,0.0,,,10.1103/physrevb.86.214507
K 3,{},{'K': 3},5.0,0.0,,,10.1103/physrevb.86.214507