Material,Substitutions,Composition,Tc (K),Pressure (GPa),Shape,Substrate,DOI
Ba C 6,{},"{'Ba': 1, 'C': 6}",0.23,0.0,,,10.1016/b978-0-44-453153-7.00131-0
Ba C 6,{},"{'Ba': 1, 'C': 6}",65.0,0.0,,,10.1016/b978-0-44-453153-7.00131-0
Ba C 6,{},"{'Ba': 1, 'C': 6}",0.065,0.0,,,10.1016/b978-0-44-453153-7.00131-0
K Hg C 4,{},"{'K': 1, 'Hg': 1, 'C': 4}",0.73,0.0,,,10.1016/b978-0-44-453153-7.00131-0
Sr Pt 2 As 2,{},"{'Sr': 1, 'Pt': 2, 'As': 2}",5.2,0.0,,,10.1016/j.ssc.2009.12.028
Ca 10 (Pt 4 As 8) (Fe 2 As 2) 5,{},"{'Ca': 10, 'Pt': 4, 'As': 18, 'Fe': 10}",25.0,0.0,,,10.1016/j.ssc.2009.12.028
La Fe As O 1-x F x,{'x': []},,26.0,0.0,,,10.1016/j.ssc.2009.12.028
Pr Os 4 Sb 12,{},"{'Pr': 1, 'Os': 4, 'Sb': 12}",1.85,0.0,,,10.1143/jpsj.74.1938
Y Ba 2 Cu 3 O 7,{},"{'Y': 1, 'Ba': 2, 'Cu': 3, 'O': 7}",90.0,0.0,,,10.1016/j.physc.2007.03.072
Y 0.95 Ca 0.05 Ba 2 (Cu 0.98 Zn 0.02) 3 O 7-δ,{'δ': []},,63.5,0.0,,,10.1016/j.physc.2007.03.072
Y 0.95 Ca 0.05 Ba 2 Cu 3 O 7-δ,{'δ': []},,85.0,0.0,,,10.1016/j.physc.2007.03.072
In 2 H Ta S 2,{},"{'In': 2, 'H': 1, 'Ta': 1, 'S': 2}",1.0,0.0,,,10.1103/physrevlett.122.127001
Bi 2 Sr 2 Ca Cu 2 O 8+δ,{'δ': []},,20.0,0.0,,,10.1038/nature09169
Bi 2 Sr 2 Ca Cu 2 O 8+δ,{'δ': []},,35.0,0.0,,,10.1038/nature09169
Sn 4,{},{'Sn': 4},3.795,0.0,,,10.1063/10.0000049
Ba 0.67 K 0.33 Fe 2 As 2,{},"{'Ba': 0.67, 'K': 0.33, 'Fe': 2, 'As': 2}",38.0,0.0,single crystals,,10.1103/physrevb.85.174508
Sr 2 Ru O 4,{},"{'Sr': 2, 'Ru': 1, 'O': 4}",1.5,0.0,,,10.1088/0034-4885/75/4/042501
Sr 2 Ru O 4,{},"{'Sr': 2, 'Ru': 1, 'O': 4}",1.45,0.0,,,10.1088/0034-4885/75/4/042501
Li 2 Pt 3 B,{},"{'Li': 2, 'Pt': 3, 'B': 1}",2.1,0.0,,,10.1103/physrevlett.98.047002
Li 2 Pt 3 B,{},"{'Li': 2, 'Pt': 3, 'B': 1}",0.1,0.0,,,10.1103/physrevlett.98.047002
Tl 2 Ba 2 Cu O 6+δ,{'δ': []},,15.0,0.0,,,10.1209/0295-5075/123/47004
Sr 2 Ru O 4,{},"{'Sr': 2, 'Ru': 1, 'O': 4}",1.5,0.0,,,10.1209/0295-5075/123/47004
Na 1-x Sn 2 P 2,{'x': []},,2.0,0.0,,,10.1209/0295-5075/123/47004
Na Sn 2 As 2,{},"{'Na': 1, 'Sn': 2, 'As': 2}",1.6,0.0,single crystals,,10.1209/0295-5075/123/47004
Na Sn 2 As 2,{},"{'Na': 1, 'Sn': 2, 'As': 2}",1.3,0.0,,,10.1209/0295-5075/123/47004
La 2 Cu O 4+y,{'y': []},,34.0,0.0,,,10.1103/physrevb.60.3643
La 2 Cu O 4+y,{'y': []},,31.0,0.0,,,10.1103/physrevb.60.3643
La 1.48 Nd 0.4 Sr 0.12 Cu O 4,{},"{'La': 1.48, 'Nd': 0.4, 'Sr': 0.12, 'Cu': 1, 'O': 4}",31.0,0.0,,,10.1103/physrevb.60.3643
La 1.85 Sr 0.15 Cu O 4,{},"{'La': 1.85, 'Sr': 0.15, 'Cu': 1, 'O': 4}",37.5,0.0,,,10.1103/physrevb.60.3643
La 2 Cu O 4+y,{'y': []},,42.0,0.0,single crystal,,10.1103/physrevb.60.3643
La 1.6-x Nd 0.4 Sr x Cu O 4,{'x': []},,50.0,0.0,,,10.1103/physrevb.60.3643
La 1.85 Sr 0.15 Cu O 4,{},"{'La': 1.85, 'Sr': 0.15, 'Cu': 1, 'O': 4}",38.0,0.0,,,10.1103/physrevb.60.3643
C 6 H 16 N 2,{},"{'C': 6, 'H': 16, 'N': 2}",41.0,0.0,,,
Fe Te 1-x Se x,{'x': []},,14.5,0.0,,,
Mg C Ni 3,{},"{'Mg': 1, 'C': 1, 'Ni': 3}",8.0,0.0,,,10.1143/jpsjs.71s.341
Pb Ta Se 2,{},"{'Pb': 1, 'Ta': 1, 'Se': 2}",3.7,0.0,,,
La O 0.5 F 0.5 Bi Se 2,{},"{'La': 1, 'O': 0.5, 'F': 0.5, 'Bi': 1, 'Se': 2}",2.5,0.0,polycrystalline,,10.7566/jpsj.83.114709
Y Ba 2 (Cu 1-x Zn x) 3 O 7-δ,"{'δ': [], 'x': [0.012]}",,10.0,0.0,,,10.7566/jpsj.82.033701
Bi 2 Sr 2 Ca Cu 2 O 8,{},"{'Bi': 2, 'Sr': 2, 'Ca': 1, 'Cu': 2, 'O': 8}",120.0,0.0,,,10.1038/ncomms7958
Ce 0.8 La 0.2 Al 3,{},"{'Ce': 0.8, 'La': 0.2, 'Al': 3}",2.3,0.0,,,10.1103/physrevlett.86.1090
Nb Se 2,{},"{'Nb': 1, 'Se': 2}",5.0,0.0,,,10.1088/2053-1583/ab0bcc
Mg B 2,{},"{'Mg': 1, 'B': 2}",39.0,0.0,,,10.1007/0-306-48063-8
Bi 2 Sr 2 Ca Cu 2 O 8,{},"{'Bi': 2, 'Sr': 2, 'Ca': 1, 'Cu': 2, 'O': 8}",92.0,0.0,single crystals,,10.1038/srep18747
Bi 2 Sr 2 Ca Cu 2 O 8,{},"{'Bi': 2, 'Sr': 2, 'Ca': 1, 'Cu': 2, 'O': 8}",92.0,0.0,,,10.1038/srep18747
Fe Se,{},"{'Fe': 1, 'Se': 1}",9.0,0.0,,,10.1103/physrevb.96.121103
Ca Sb 2,{},"{'Ca': 1, 'Sb': 2}",1.6,0.0,single crystals,,
Ta Se 3,{},"{'Ta': 1, 'Se': 3}",1.6,0.0,,,
Mg B 2,{},"{'Mg': 1, 'B': 2}",30.0,0.0,,,10.1143/jpsj.74.1386
Nb B x,{'x': []},,9.4,0.0,single-crystalline,,10.1143/jpsj.74.1386
Nb B 2,{},"{'Nb': 1, 'B': 2}",0.62,0.0,,,10.1143/jpsj.74.1386
Nb,{},{'Nb': 1},9.8,0.0,,,10.1143/jpsj.74.1386
Nb B 2.1,{},"{'Nb': 1, 'B': 2.1}",5.0,0.0,,,10.1143/jpsj.74.1386
Nb B 2,{},"{'Nb': 1, 'B': 2}",3.87,0.0,,,10.1143/jpsj.74.1386
Ba Zr O 3,{},"{'Ba': 1, 'Zr': 1, 'O': 3}",30.0,0.0,,,10.1007/s00339-004-3014-2
La Fe As,{},"{'La': 1, 'Fe': 1, 'As': 1}",40.0,0.0,,,10.1088/1674-1056/22/8/087405
La (O 1-x F x) Fe As,{'x': []},,26.0,0.0,,,
Sm (O 0.9 F 0.1) Fe As,{},"{'Sm': 1, 'O': 0.9, 'F': 0.1, 'Fe': 1, 'As': 1}",55.0,0.0,,,
Sm (O 1-x F x) Fe As,{'x': []},,55.0,0.0,,,
Sm (O 1-x F x) Fe As,{'x': []},,55.0,0.0,,"Ren Zhi-An (任治安)*, Lu Wei (陆伟), Yang Jie (杨杰), Yi Wei",
Pr (O 1-x F x) Fe As,{'x': []},,52.6,0.0,,,
Cu 0.12 Bi 2 Se 3,{},"{'Cu': 0.12, 'Bi': 2, 'Se': 3}",3.8,0.0,single crystals,,10.1103/physrevlett.104.057001
Cu 0.12 Bi 2 Se 3,{},"{'Cu': 0.12, 'Bi': 2, 'Se': 3}",3.8,0.0,single crystal,,10.1103/physrevlett.104.057001
Cu x Bi 2 Se 3,{'x': [0.15]},"{'Cu': 0.15, 'Bi': 2, 'Se': 3}",3.8,0.0,,,10.1103/physrevlett.104.057001
La 2 Cu O 4+δ,{'δ': []},,39.0,0.0,thin films,,10.1126/science.1070903
Y Ba 2 Cu 3 O 6.6,{},"{'Y': 1, 'Ba': 2, 'Cu': 3, 'O': 6.6}",61.0,0.0,,,10.1103/physrevb.97.184504
Mg B 2,{},"{'Mg': 1, 'B': 2}",39.0,0.0,,,10.1103/physrevlett.89.097002
Y Ba 2 Cu 3 O 7-δ,{'δ': []},,93.0,0.0,,,10.1021/jz200916t
Nd Co As O,{},"{'Nd': 1, 'Co': 1, 'As': 1, 'O': 1}",69.0,0.0,,,10.1088/0953-8984/22/18/185702
Ru 1-x Sr 2 Gd Cu 2+x O 8,{'x': [0.3]},"{'Ru': 0.7, 'Sr': 2, 'Gd': 1, 'Cu': 2.3, 'O': 8}",56.0,0.0,,,
Ru Sr 2 Gd Cu 2 O 8,{},"{'Ru': 1, 'Sr': 2, 'Gd': 1, 'Cu': 2, 'O': 8}",34.0,0.0,,,
Ru Sr 2 Eu 2-x Ce x Cu 2 O 10,{'x': [0.5]},"{'Ru': 1, 'Sr': 2, 'Eu': 1.5, 'Ce': 0.5, 'Cu': 2, 'O': 10}",46.0,0.0,,,
Ce Pt 3 Si,{},"{'Ce': 1, 'Pt': 3, 'Si': 1}",0.75,0.0,,,10.1103/physrevb.87.144504
La Pt 3 P,{},"{'La': 1, 'Pt': 3, 'P': 1}",1.5,0.0,,,10.1103/physrevb.87.144504
Mg B 2,{},"{'Mg': 1, 'B': 2}",39.0,0.0,,,10.1103/physrevb.87.144504
Y 3 Ba 8 Cu 11 O 7,{},"{'Y': 3, 'Ba': 8, 'Cu': 11, 'O': 7}",95.0,0.0,,,10.1007/s10948-010-0786-9
Y Ba Cu O,{},"{'Y': 1, 'Ba': 1, 'Cu': 1, 'O': 1}",109.0,0.0,,,10.1007/s10948-010-0786-9
Y 7 Ba 11 Cu 18 O 7,{},"{'Y': 7, 'Ba': 11, 'Cu': 18, 'O': 7}",109.0,0.0,,,10.1007/s10948-010-0786-9
K 0.8 Fe 2 Se 2,{},"{'K': 0.8, 'Fe': 2, 'Se': 2}",31.0,0.0,,,10.1103/physrevb.85.024518
Fe Se,{},"{'Fe': 1, 'Se': 1}",37.0,6.0,,,10.1103/physrevb.85.024518
B c2,{'c': []},,3.2,0.0,,,10.1103/physrevlett.106.127004
Ga 0.947 Mn 0.053 As,{},"{'Ga': 0.947, 'Mn': 0.053, 'As': 1}",110.0,0.0,,,10.1088/0268-1242/17/4/310
Ge 1-x Mn x,{'x': []},,100.0,0.0,,,10.1088/0268-1242/17/4/310
Bi 2 Sr 2 Cu O 6,{},"{'Bi': 2, 'Sr': 2, 'Cu': 1, 'O': 6}",8.5,0.0,,,
La O 1-x F x Fe As,{'x': []},,26.0,0.0,,,10.1088/0953-8984/25/12/122201
K Ca 2 Fe 4 As 4 F 2,{},"{'K': 1, 'Ca': 2, 'Fe': 4, 'As': 4, 'F': 2}",33.5,0.0,,,10.1103/physrevb.82.184424
K Fe 2 As 2,{},"{'K': 1, 'Fe': 2, 'As': 2}",3.0,0.0,,,10.1103/physrevb.82.184424
S,{},{'S': 1},65.0,0.0,,,10.4279/pip.050008
Bi,{},{'Bi': 1},21.0,0.0,bulk,,10.4279/pip.050008
Ba Ti 2 Bi 2 O,{},"{'Ba': 1, 'Ti': 2, 'Bi': 2, 'O': 1}",5.5,0.0,,,10.1038/srep29661
Ba Ti 2 As 2 O,{},"{'Ba': 1, 'Ti': 2, 'As': 2, 'O': 1}",6.93,0.0,,,10.1038/srep29661
Ba,{},{'Ba': 1},1.2,0.0,,,10.1038/srep29661
Na x Ti 2 Sb 2 O,{'x': []},,1.2,0.0,,,10.1038/srep29661
Ba,{},{'Ba': 1},5.5,0.0,,,10.1038/srep29661
Na x Ti 2 Sb 2 O,{'x': []},,5.5,0.0,,,10.1038/srep29661
Ba 1-x K x Fe 2 As 2,{'x': []},,38.0,0.0,,,
La Fe As O 1-x F x,{'x': [0.05]},"{'La': 1, 'Fe': 1, 'As': 1, 'O': 0.95, 'F': 0.05}",26.0,0.0,,,
La 1.85 Sr 0.15 Cu O 4,{},"{'La': 1.85, 'Sr': 0.15, 'Cu': 1, 'O': 4}",38.0,0.0,,,
Y B 6,{},"{'Y': 1, 'B': 6}",7.1,0.0,,,
K 3 C 60,{},"{'K': 3, 'C': 60}",10.0,0.0,,,10.1155/2013/367270
Bi 1.8 Pb 0.38 Sr 2.01 Cu O 6-δ,{'δ': []},,4.0,0.0,,,10.1103/physrevb.66.174517
Ga As,{},"{'Ga': 1, 'As': 1}",10.0,0.0,,,
In As,{},"{'In': 1, 'As': 1}",20.0,0.0,,,
Ni Bi,{},"{'Ni': 1, 'Bi': 1}",4.25,0.0,,,10.1039/c6sc04683e
Fe Bi 2,{},"{'Fe': 1, 'Bi': 2}",1.3,40.0,,,10.1039/c6sc04683e
Fe Se,{},"{'Fe': 1, 'Se': 1}",56.0,0.0,,,10.1039/c6sc04683e
Ni Bi 3,{},"{'Ni': 1, 'Bi': 3}",4.06,0.0,,,10.1039/c6sc04683e
Ca 11 Bi 10-x,{'x': []},,2.2,0.0,,,10.1039/c6sc04683e
Co Bi 3,{},"{'Co': 1, 'Bi': 3}",0.48,0.0,,,10.1039/c6sc04683e
Cu 11 Bi 7,{},"{'Cu': 11, 'Bi': 7}",1.36,0.0,,,10.1039/c6sc04683e
Li Fe As,{},"{'Li': 1, 'Fe': 1, 'As': 1}",18.0,0.0,,,10.1039/c6sc04683e
Fe Se,{},"{'Fe': 1, 'Se': 1}",18.0,0.0,,,10.1039/c6sc04683e
Fe Bi 2,{},"{'Fe': 1, 'Bi': 2}",1.3,0.0,,,10.1039/c6sc04683e
Ce Ni 2 As 2,{},"{'Ce': 1, 'Ni': 2, 'As': 2}",4.8,0.0,,,
U Co Ge,{},"{'U': 1, 'Co': 1, 'Ge': 1}",2.5,0.0,single crystal,,10.1103/physrevb.82.180517
U Co Ge,{},"{'U': 1, 'Co': 1, 'Ge': 1}",2.5,0.0,,,10.1103/physrevb.82.180517
U Co Ge,{},"{'U': 1, 'Co': 1, 'Ge': 1}",0.8,0.0,,,10.1103/physrevb.82.180517
Os B 2,{},"{'Os': 1, 'B': 2}",2.1,0.0,,,10.1088/1361-648x/ab79f6
Mg B 2,{},"{'Mg': 1, 'B': 2}",40.0,0.0,,,10.1088/1361-648x/ab79f6
Bi,{},{'Bi': 1},89.1,0.0,,,
Ce Rh In 5,{},"{'Ce': 1, 'Rh': 1, 'In': 5}",0.1,0.0,,,10.1088/0034-4885/79/6/064502
Ce Co In 5,{},"{'Ce': 1, 'Co': 1, 'In': 5}",2.3,0.0,,,10.1088/0034-4885/79/6/064502
Fe Se,{},"{'Fe': 1, 'Se': 1}",65.0,0.0,thin film,SrTiO3 (FeSe/STO,
Y Ba 2 Cu 3 O 6.6,{},"{'Y': 1, 'Ba': 2, 'Cu': 3, 'O': 6.6}",60.0,0.0,,,10.1103/physrevb.82.134526
Mg B 2,{},"{'Mg': 1, 'B': 2}",0.5,0.0,,,
Mg B 2-x C x,{'x': []},,14.0,0.0,,,
Mg B 2-x C x,{'x': []},,26.0,0.0,,,
Mg 0.95 Cu 0.05 B 2-x C x,{'x': []},,10.0,0.0,,,
Mg B 2,{},"{'Mg': 1, 'B': 2}",39.4,0.0,,,
Ba (Fe 0.92 Co 0.08) 2 As 2,{},"{'Ba': 1, 'Fe': 1.84, 'Co': 0.16, 'As': 2}",25.0,0.0,,,10.1103/physrevlett.114.147004
K 2 Cr 3 As 3,{},"{'K': 2, 'Cr': 3, 'As': 3}",6.1,0.0,,,10.1103/physrevlett.114.147004
Cr As,{},"{'Cr': 1, 'As': 1}",2.2,0.7,,,10.1103/physrevlett.114.147004
Mo Ge,{},"{'Mo': 1, 'Ge': 1}",1.05,0.0,film,,10.1103/physrevlett.110.037002
Mg B 2,{},"{'Mg': 1, 'B': 2}",39.0,0.0,,,10.1103/physrevb.64.060505
Li V 2 O 4,{},"{'Li': 1, 'V': 2, 'O': 4}",16.0,0.0,,,10.1088/0953-8984/15/2/318
Sr 3 Ru 2 O 7,{},"{'Sr': 3, 'Ru': 2, 'O': 7}",16.0,0.0,,,10.1088/0953-8984/15/2/318
Sr 14-x Ca x Cu 24 O 41,{'x': []},,10.0,0.0,,,10.1016/s0921-4526(01)01288-1
Al,{},{'Al': 1},1.18,0.0,film,,10.1063/1.125386
Ca 10 Pt 4 As 8 (Fe 1-x Pt x As) 10,{'x': [0.2]},"{'Ca': 10, 'Pt': 6.0, 'As': 18, 'Fe': 8.0}",33.0,0.0,,,10.7566/jpscp.3.015043
Ca 10 Pt 4 As 8 (Fe 1-x Pt x As) 10,{'x': [0.2]},"{'Ca': 10, 'Pt': 6.0, 'As': 18, 'Fe': 8.0}",33.0,0.0,crystal,,10.7566/jpscp.3.015043
La 1-x Sr x Co O 3-δ,"{'δ': [], 'x': [0.3]}",,100.0,0.0,,,10.1016/s1386-9477(02)01030-5
Mg B 2,{},"{'Mg': 1, 'B': 2}",40.0,0.0,,,10.1038/35079024
Bi 2 Sr 2 Ca Cu 2 O 8,{},"{'Bi': 2, 'Sr': 2, 'Ca': 1, 'Cu': 2, 'O': 8}",79.0,0.0,,,10.1103/physrevlett.74.4313
Bi 2 Sr 2 Ca Cu 2 O 8,{},"{'Bi': 2, 'Sr': 2, 'Ca': 1, 'Cu': 2, 'O': 8}",86.0,0.0,,,10.1103/physrevlett.74.4313
Tl 2 Ba 2 Cu O 6,{},"{'Tl': 2, 'Ba': 2, 'Cu': 1, 'O': 6}",80.0,0.0,,,10.1103/physrevlett.74.4313
Nb,{},{'Nb': 1},8.6,0.0,film,,10.1088/1367-2630/9/2/034
Ba Fe 2 (As 1-x P x) 2,{'x': [0.33]},"{'Ba': 1, 'Fe': 2, 'As': 1.3399999999999999, 'P': 0.66}",30.0,0.0,,,10.1103/physrevb.81.220501
Ba Fe 2 As 2,{},"{'Ba': 1, 'Fe': 2, 'As': 2}",30.0,0.0,,,10.1103/physrevb.81.220501
La Fe P O,{},"{'La': 1, 'Fe': 1, 'P': 1, 'O': 1}",6.0,0.0,,,10.1103/physrevb.81.220501
Ba Fe 2 (As 1-x P x) 2,{'x': [0.33]},"{'Ba': 1, 'Fe': 2, 'As': 1.3399999999999999, 'P': 0.66}",30.0,0.0,single crystals,,10.1103/physrevb.81.220501
Ru Sr 2 (Gd 0.7 Ce 0.3) 2 Cu 2 O 10+δ,{'δ': []},,5.0,0.0,,,
Ru Sr 2 Gd Cu 2 O 8,{},"{'Ru': 1, 'Sr': 2, 'Gd': 1, 'Cu': 2, 'O': 8}",30.0,0.0,,,
Eu Fe 2 (As 1-x P x) 2,"{'x': [0.16, 0.18, 0.2]}","{'Eu': 1, 'Fe': 2, 'As': 1.68, 'P': 0.32}",28.0,0.0,single crystals,,10.1103/physrevb.83.054511
Fe Se,{},"{'Fe': 1, 'Se': 1}",14.0,0.0,,,10.1103/physrevb.83.054511
Eu Fe 2 (As 0.7 P 0.3) 2,{},"{'Eu': 1, 'Fe': 2, 'As': 1.4, 'P': 0.6}",26.0,0.0,,,10.1103/physrevb.83.054511
Ca Fe 2 As 2,{},"{'Ca': 1, 'Fe': 2, 'As': 2}",38.0,0.0,,,10.1103/physrevb.83.054511
Sr Fe 2 As 2,{},"{'Sr': 1, 'Fe': 2, 'As': 2}",38.0,0.0,,,10.1103/physrevb.83.054511
Ba Fe 2 As 2,{},"{'Ba': 1, 'Fe': 2, 'As': 2}",38.0,0.0,,,10.1103/physrevb.83.054511
Eu Fe 2 As 1.4 P 0.6,{},"{'Eu': 1, 'Fe': 2, 'As': 1.4, 'P': 0.6}",19.4,0.0,,,10.1103/physrevb.83.054511
Ba Fe 2 As 1.36 P 0.64,{},"{'Ba': 1, 'Fe': 2, 'As': 1.36, 'P': 0.64}",30.0,0.0,,,10.1016/j.ssc.2009.10.021
Li Fe P,{},"{'Li': 1, 'Fe': 1, 'P': 1}",6.0,0.0,,,10.1016/j.ssc.2009.10.021
Ca Fe 2 As 1.7 P 0.3,{},"{'Ca': 1, 'Fe': 2, 'As': 1.7, 'P': 0.3}",13.0,0.0,,,10.1016/j.ssc.2009.10.021
Sr Fe 2 As 1.3 P 0.7,{},"{'Sr': 1, 'Fe': 2, 'As': 1.3, 'P': 0.7}",27.0,0.0,,,10.1016/j.ssc.2009.10.021
Li Fe As,{},"{'Li': 1, 'Fe': 1, 'As': 1}",18.0,0.0,,,10.1016/j.ssc.2009.10.021
Sr 4 Sc 2 Fe 2 P 2 O 6,{},"{'Sr': 4, 'Sc': 2, 'Fe': 2, 'P': 2, 'O': 6}",17.0,0.0,,,10.1016/j.ssc.2009.10.021
Pr Os 4 Sb 12,{},"{'Pr': 1, 'Os': 4, 'Sb': 12}",0.6,0.0,,,10.1103/physrevlett.105.019701
Pr Os 4 Sb 12,{},"{'Pr': 1, 'Os': 4, 'Sb': 12}",1.85,0.0,,,10.1103/physrevlett.95.107004
Pr Os 4 Sb 12,{},"{'Pr': 1, 'Os': 4, 'Sb': 12}",1.85,0.0,single crystal,,10.1103/physrevlett.95.107004
Y B 6,{},"{'Y': 1, 'B': 6}",7.5,0.0,single crystal,,10.1088/0953-2048/26/4/045019
La B 6,{},"{'La': 1, 'B': 6}",8.4,0.0,,,10.1088/0953-2048/26/4/045019
Y B 6,{},"{'Y': 1, 'B': 6}",7.1,0.0,,,10.1088/0953-2048/26/4/045019
Th C 0.78 N 0.22,{},"{'Th': 1, 'C': 0.78, 'N': 0.22}",5.8,0.0,,,10.1016/j.jallcom.2012.10.099
Th 2 Ni C 2,{},"{'Th': 2, 'Ni': 1, 'C': 2}",8.5,0.0,,,10.1016/j.jallcom.2012.10.099
Th 2 Ni C 2,{},"{'Th': 2, 'Ni': 1, 'C': 2}",5.0,0.0,,,10.1016/j.jallcom.2012.10.099
Th 1.8 Sc 0.2 Ni C 2,{},"{'Th': 1.8, 'Sc': 0.2, 'Ni': 1, 'C': 2}",11.2,0.0,,,10.1016/j.jallcom.2012.10.099
La 3 Ni 4 Si 4,{},"{'La': 3, 'Ni': 4, 'Si': 4}",1.0,0.0,,,10.1016/j.jallcom.2012.10.099
La 3 Ni 4 P 4 O 2,{},"{'La': 3, 'Ni': 4, 'P': 4, 'O': 2}",2.2,0.0,,,10.1016/j.jallcom.2012.10.099
Th 3 Ni 5 C 5,{},"{'Th': 3, 'Ni': 5, 'C': 5}",5.0,0.0,,,10.1016/j.jallcom.2012.10.099
Zr Ni 2 Ga,{},"{'Zr': 1, 'Ni': 2, 'Ga': 1}",2.9,0.0,,,10.1016/j.jallcom.2012.10.099
Gd Ni Bi O,{},"{'Gd': 1, 'Ni': 1, 'Bi': 1, 'O': 1}",1.0,0.0,,,10.1016/j.jallcom.2012.10.099
Gd Ni Bi O,{},"{'Gd': 1, 'Ni': 1, 'Bi': 1, 'O': 1}",4.0,0.0,,,10.1016/j.jallcom.2012.10.099
Fe Se,{},"{'Fe': 1, 'Se': 1}",8.0,0.0,,,10.1088/1361-6668/aa94ac
S Cs,{},"{'S': 1, 'Cs': 1}",40.0,0.0,,,10.1088/1361-6668/aa94ac
(Li 1-x Fe x O H) Fe Se,{'x': []},,40.0,0.0,,,10.1088/1361-6668/aa94ac
I B S Cs,{},"{'I': 1, 'B': 1, 'S': 1, 'Cs': 1}",8.0,0.0,,,10.1088/1361-6668/aa94ac
Hg Ba 2 Cu O 4+δ,{'δ': []},,96.5,0.0,,,10.1103/physrevlett.95.217003
Mg C x Ni 3,{'x': [0.85]},"{'Mg': 1, 'C': 0.85, 'Ni': 3}",7.0,0.0,,,10.1103/physrevb.68.024523
La 2-x Sr x Cu O 4,{'x': []},,38.0,0.0,,,10.1103/physrevb.78.064504
Mg B 2,{},"{'Mg': 1, 'B': 2}",37.0,0.0,,,10.1103/physrevb.64.012511
Mg B 2,{},"{'Mg': 1, 'B': 2}",40.0,0.0,,,10.1103/physrevb.64.012511
Ce Ru 2,{},"{'Ce': 1, 'Ru': 2}",6.3,0.0,,,10.1103/physrevb.57.r11069
Sc 5 Ir 4 Si 10,{},"{'Sc': 5, 'Ir': 4, 'Si': 10}",8.5,0.0,,,10.1063/1.3486467
Tl Bi Te 2,{},"{'Tl': 1, 'Bi': 1, 'Te': 2}",0.14,0.0,,,10.1021/acs.chemmater.5b03727
Tl Bi Te 2,{},"{'Tl': 1, 'Bi': 1, 'Te': 2}",2.0,0.0,,,10.1021/acs.chemmater.5b03727
Tl to Bi 2 Te 3,"{'o': [], 't': []}",,2.28,0.0,,,10.1021/acs.chemmater.5b03727
Tl 0.6 Bi 2 Te 3,{},"{'Tl': 0.6, 'Bi': 2, 'Te': 3}",2.4,0.0,,,10.1021/acs.chemmater.5b03727
Sr x Bi 2 Se 3,{'x': []},,2.9,0.0,,,10.1021/acs.chemmater.5b03727
Tl 0.6 Bi 2 Te 3,{},"{'Tl': 0.6, 'Bi': 2, 'Te': 3}",2.28,0.0,,,10.1021/acs.chemmater.5b03727
La (O 1-x F x) Fe P,{'x': []},,5.0,0.0,,,10.1143/apex.1.081703
Li,{},{'Li': 1},20.0,0.0,,,10.1143/apex.1.081703
(Ba 1-x K x) Fe 2 As 2,{'x': []},,38.0,0.0,,,10.1143/apex.1.081703
Bi 4 O 4 S 3,{},"{'Bi': 4, 'O': 4, 'S': 3}",4.5,0.0,,,10.1016/j.physc.2014.01.003
Re O 1-x F x Bi S 2,{'x': []},,10.0,0.0,,,10.1016/j.physc.2014.01.003
Eu (Fe 1-x Co x) 2 As 2,{'x': []},,21.0,0.0,,,10.1103/physrevb.91.094427
Eu (Fe 0.86 Ir 0.14) 2 As 2,{},"{'Eu': 1, 'Fe': 1.72, 'Ir': 0.28, 'As': 2}",22.5,0.0,,,10.1103/physrevb.91.094427
Eu (Fe 0.86 Ir 0.14) 2 As 2,{},"{'Eu': 1, 'Fe': 1.72, 'Ir': 0.28, 'As': 2}",21.5,0.0,,,10.1103/physrevb.91.094427
Eu Fe 2 (As 1-x P x) 2,{'x': []},,26.0,0.0,,,10.1103/physrevb.91.094427
Eu 0.5 K 0.5 Fe 2 As 2,{},"{'Eu': 0.5, 'K': 0.5, 'Fe': 2, 'As': 2}",33.0,0.0,,,10.1103/physrevb.91.094427
Ba 0.3 K 0.7 Fe 2 As 2,{},"{'Ba': 0.3, 'K': 0.7, 'Fe': 2, 'As': 2}",22.0,0.0,,,10.1103/physrevb.83.020501
K 0.7,{},{'K': 0.7},22.0,0.0,,,10.1103/physrevb.83.020501
Nb,{},{'Nb': 1},9.2,10.0,films,,10.1140/epjb/e2010-10636-4
La Fe As O 0.9 F 0.1,{},"{'La': 1, 'Fe': 1, 'As': 1, 'O': 0.9, 'F': 0.1}",27.0,0.0,,,10.1143/jpsjs.77sc.47
Ba Fe 1.8 Co 0.2 As 2,{},"{'Ba': 1, 'Fe': 1.8, 'Co': 0.2, 'As': 2}",22.0,0.0,sin- gle crystal,,10.1143/jpsjs.77sc.47
Ba Fe 1.8 Co 0.2 As 2,{},"{'Ba': 1, 'Fe': 1.8, 'Co': 0.2, 'As': 2}",22.0,0.0,,,10.1143/jpsjs.77sc.47
Ba Fe 1.8 Co 0.2 As 2,{},"{'Ba': 1, 'Fe': 1.8, 'Co': 0.2, 'As': 2}",22.0,0.0,single crystalline,,10.1143/jpsjs.77sc.47
Y Ba 2 Cu 3 O 7-δ,{'δ': []},,92.0,0.0,sin- gle crystals,,10.1007/s10854-018-8644-9
Mg C Ni 3,{},"{'Mg': 1, 'C': 1, 'Ni': 3}",7.0,0.0,,,
Sm Fe As O 0.8 F 0.2,{},"{'Sm': 1, 'Fe': 1, 'As': 1, 'O': 0.8, 'F': 0.2}",52.3,0.0,,,10.1103/physrevb.84.064507
Rb 2 Mo 6 Se 6,{},"{'Rb': 2, 'Mo': 6, 'Se': 6}",4.2,0.0,,,10.1103/physrevb.91.020506
Tl 2 Mo 6 Se 6,{},"{'Tl': 2, 'Mo': 6, 'Se': 6}",4.2,0.0,,,10.1103/physrevb.91.020506
K 2 Cr 3 As 3,{},"{'K': 2, 'Cr': 3, 'As': 3}",6.1,0.0,,,10.1103/physrevb.91.020506
Bi 2 Sr 2 Ca Cu 2 O 8+δ,{'δ': []},,91.0,0.0,,,
Na Fe 0.925 Co 0.075 As,{},"{'Na': 1, 'Fe': 0.925, 'Co': 0.075, 'As': 1}",20.0,0.0,,,10.1209/0295-5075/101/17007
Ba (Fe 0.9 Co 0.1) 2 As 2,{},"{'Ba': 1, 'Fe': 1.8, 'Co': 0.2, 'As': 2}",22.0,0.0,,,10.1209/0295-5075/101/17007
Na Fe 0.95 Co 0.05 As,{},"{'Na': 1, 'Fe': 0.95, 'Co': 0.05, 'As': 1}",18.0,0.0,,,10.1209/0295-5075/101/17007
Cd 2 Re 2 O 7,{},"{'Cd': 2, 'Re': 2, 'O': 7}",1.5,0.0,,,10.1143/jpsj.72.1607
Mg B 2,{},"{'Mg': 1, 'B': 2}",39.0,0.0,,,10.1103/physrevlett.88.167004
Ba Fe 2 As 2,{},"{'Ba': 1, 'Fe': 2, 'As': 2}",140.0,0.0,,,
Ca 10 (Pt 4 As 8) (Fe 2-x Pt x As 2) 5,{'x': []},,38.0,0.0,,,10.1103/physrevb.89.220508
Ca 10 (Ir 4 As 8) (Fe 2-x Ir x As 2) 5,{'x': []},,16.0,0.0,,,10.1103/physrevb.89.220508
Pt 4 As 8,{},"{'Pt': 4, 'As': 8}",38.0,0.0,,,10.1103/physrevb.89.220508
Ba Ca Cu O,{},"{'Ba': 1, 'Ca': 1, 'Cu': 1, 'O': 1}",119.0,0.0,film,,10.1088/0953-2048/17/1/034
Hg Ba 2 Ca 2 Cu 3 O 8+δ,{'δ': []},,135.0,0.0,,,10.1088/0953-2048/17/1/034
Sr 0.991 Ca 0.009 Ti O 3,{},"{'Sr': 0.991, 'Ca': 0.009, 'Ti': 1, 'O': 3}",27.0,0.0,,,10.1103/physrevb.100.195121
Sr 0.991 Ca 0.009 Ti O 3,{},"{'Sr': 0.991, 'Ca': 0.009, 'Ti': 1, 'O': 3}",116.0,0.0,,,10.1103/physrevb.100.195121
H 2 S 18,{},"{'H': 2, 'S': 18}",204.0,170.0,,,10.1007/1-4020-3989-1_6
Sc H 6,{},"{'Sc': 1, 'H': 6}",196.0,170.0,,,10.1007/1-4020-3989-1_6
Y H 6,{},"{'Y': 1, 'H': 6}",231.5,170.0,,,10.1007/1-4020-3989-1_6
La H 10,{},"{'La': 1, 'H': 10}",250.0,170.0,,,10.1007/1-4020-3989-1_6
Y H 6,{},"{'Y': 1, 'H': 6}",231.0,170.0,,,10.1007/1-4020-3989-1_6
Sc B 2,{},"{'Sc': 1, 'B': 2}",1.5,0.0,,,10.1103/physrevb.65.052501
Mg B 2,{},"{'Mg': 1, 'B': 2}",39.0,0.0,,,10.1103/physrevb.83.214520
Ba Ni 2 As 2,{},"{'Ba': 1, 'Ni': 2, 'As': 2}",0.68,0.0,,,10.1103/physrevb.83.214520
Li Fe As,{},"{'Li': 1, 'Fe': 1, 'As': 1}",18.0,0.0,,,10.1103/physrevb.83.214520
Rb 2 Cs C 60,{},"{'Rb': 2, 'Cs': 1, 'C': 60}",33.0,0.0,,,10.1103/physrevb.83.214520
Rb Fe 2 As 2,{},"{'Rb': 1, 'Fe': 2, 'As': 2}",2.5,0.0,,,10.1103/physrevb.83.214520
Na Fe 0.95 Co 0.05 As,{},"{'Na': 1, 'Fe': 0.95, 'Co': 0.05, 'As': 1}",18.0,0.0,,,10.1103/physrevb.83.214520
K Fe 2 As 2,{},"{'K': 1, 'Fe': 2, 'As': 2}",4.0,0.0,,,10.1103/physrevb.83.214520
Na Fe As,{},"{'Na': 1, 'Fe': 1, 'As': 1}",10.0,0.0,,,10.1103/physrevb.83.214520
Ba 1-x K x Bi O 3,{'x': []},,30.0,0.0,,,10.1103/physrevb.83.214520