Material,Substitutions,Composition,Tc (K),Pressure (GPa),Shape,Substrate,DOI
Ni Fe,{},"{'Ni': 1, 'Fe': 1}",10.0,0.0,,,10.1063/1.5139266
Sm Co,{},"{'Sm': 1, 'Co': 1}",10.0,0.0,,,10.1063/1.5139266
Bi 2 Sr 2 Ca Cu 2 O 8,{},"{'Bi': 2, 'Sr': 2, 'Ca': 1, 'Cu': 2, 'O': 8}",87.0,0.0,,,10.1103/physrevb.70.214511
Bi 2 Sr 2 Ca Cu 2 O 8+δ,{'δ': []},,90.0,0.0,single crystals,,10.1103/physrevlett.82.4926
Mo Te 2,{},"{'Mo': 1, 'Te': 2}",4.1,0.0,,,
Mo Te 2,{},"{'Mo': 1, 'Te': 2}",0.1,0.0,,,
Ca Fe 0.88 Co 0.12 As F,{},"{'Ca': 1, 'Fe': 0.88, 'Co': 0.12, 'As': 1, 'F': 1}",21.0,0.0,,,10.1038/s41535-019-0173-0
Ba (Fe 1-x Co x) 2 As 2,{'x': [0.038]},"{'Ba': 1, 'Fe': 1.924, 'Co': 0.076, 'As': 2}",8.0,0.0,,,
La 2 Cu O 4+y,{'y': []},,37.0,0.0,crystals,,10.1088/1742-6596/449/1/012002
Ba Fe 1.85 Co 0.15 As 2,{},"{'Ba': 1, 'Fe': 1.85, 'Co': 0.15, 'As': 2}",25.0,0.0,,,10.1103/physrevb.82.134503
Ba Fe 1.91 Ni 0.09 As 2,{},"{'Ba': 1, 'Fe': 1.91, 'Ni': 0.09, 'As': 2}",18.0,0.0,,,10.1103/physrevb.82.134503
Ba Fe 1.91 Ni 0.09 As 2,{},"{'Ba': 1, 'Fe': 1.91, 'Ni': 0.09, 'As': 2}",25.0,0.0,,,10.1103/physrevb.82.134503
Bi 3 Ni,{},"{'Bi': 3, 'Ni': 1}",4.0,0.0,,,10.1103/physrevb.99.064504
Ni,{},{'Ni': 1},4.0,0.0,"thin film, thin film",,10.1103/physrevb.99.064504
Bi Ni,{},"{'Bi': 1, 'Ni': 1}",4.25,0.0,,,10.1103/physrevb.99.064504
Bi 3 Ni,{},"{'Bi': 3, 'Ni': 1}",5.2,0.0,,,10.1103/physrevb.99.064504
Y Ba 2 Cu 3 O 7,{},"{'Y': 1, 'Ba': 2, 'Cu': 3, 'O': 7}",39.0,0.0,,,10.1016/j.physc.2012.02.005
Fe Se,{},"{'Fe': 1, 'Se': 1}",7.0,0.0,,,
Y Ba 2 Cu 3 O 7,{},"{'Y': 1, 'Ba': 2, 'Cu': 3, 'O': 7}",52.0,0.0,,,
Y Ba 2 Cu 3 O 7,{},"{'Y': 1, 'Ba': 2, 'Cu': 3, 'O': 7}",62.5,0.0,,,
Y Ba 2 Cu 3 O 7-x,{'x': []},,41.0,0.0,crystals,,
Y Ba 2 Cu 3 O 7,{},"{'Y': 1, 'Ba': 2, 'Cu': 3, 'O': 7}",41.0,0.0,,,
Y Ba 2 Cu 3 O 7,{},"{'Y': 1, 'Ba': 2, 'Cu': 3, 'O': 7}",62.0,0.0,,,
(Bi P b) 2 Sr 2 Ca 2 Cu 3 O 10,{'b': []},,108.0,0.0,polycrystalline,,
La 2-x Sr x Cu O 4,{'x': []},,5.0,0.0,,,10.1016/s0921-4534(02)00797-9
Mo 8 Ga 41,{},"{'Mo': 8, 'Ga': 41}",10.0,0.0,,,
Mo 8 Ga 41,{},"{'Mo': 8, 'Ga': 41}",9.8,0.0,,,
Mo 8 Ga 41,{},"{'Mo': 8, 'Ga': 41}",55.0,0.0,,,
Pd Te 2,{},"{'Pd': 1, 'Te': 2}",1.64,0.0,,,10.1063/1.4805003
Pd Te 2,{},"{'Pd': 1, 'Te': 2}",1.91,0.91,,,10.1063/1.4805003
Pd Te 2,{},"{'Pd': 1, 'Te': 2}",2.74,0.0,,,10.1063/1.4805003
Mg B 2,{},"{'Mg': 1, 'B': 2}",40.0,0.0,,,10.1002/pssa.200567003
Ce Pt 3 Si,{},"{'Ce': 1, 'Pt': 3, 'Si': 1}",0.75,0.0,,,
Al,{},{'Al': 1},1.9,0.0,,,10.1103/physrevlett.108.230509
K Ni 2 S 2,{},"{'K': 1, 'Ni': 2, 'S': 2}",0.46,0.0,,,10.1103/physrevb.90.060504
Tl Ni 2 Se 2,{},"{'Tl': 1, 'Ni': 2, 'Se': 2}",3.7,0.0,single crystals,,10.1103/physrevb.90.060504
N B S s,{'s': []},,5.0,0.0,,,10.1103/physrevb.90.060504
Sr 2 Ru O 4,{},"{'Sr': 2, 'Ru': 1, 'O': 4}",1.5,0.0,,,10.1103/physrevb.90.060504
Tl Ni 2 Se 2,{},"{'Tl': 1, 'Ni': 2, 'Se': 2}",3.7,0.0,,,10.1103/physrevb.90.060504
K Ni 2 Se 2,{},"{'K': 1, 'Ni': 2, 'Se': 2}",0.8,0.0,,,10.1103/physrevb.90.060504
Tl 2 Ba 2 Cu O 6+δ,{'δ': []},,15.0,0.0,,,10.1103/physrevb.90.060504
Y Ba 2 Cu 3 O 7,{},"{'Y': 1, 'Ba': 2, 'Cu': 3, 'O': 7}",91.0,0.0,,,10.1016/j.physc.2010.06.003
Nb N,{},"{'Nb': 1, 'N': 1}",15.0,0.0,,,10.1063/1.4893443
Ca Cu O 2,{},"{'Ca': 1, 'Cu': 1, 'O': 2}",34.0,0.0,,,10.1103/physrevb.66.134505
Sr 1.4 Ba 0.6 Cu O 3+δ,{'δ': []},,130.0,0.0,,,
Sr 2-x Ba x Cu O 3+δ,"{'δ': [], 'x': []}",,98.0,0.0,,,
Sr 2 Cu O 3+δ,{'δ': []},,98.0,0.0,,,
Sr 2 Cu O 3+δ,{'δ': []},,75.0,0.0,,,
(Ca Fe As) 10 Pt 4-y As 8,{'y': []},,38.0,0.0,,,10.1103/physrevb.88.140505
Ba (Fe 0.926 Co 0.074) 2 As 2,{},"{'Ba': 1, 'Fe': 1.852, 'Co': 0.148, 'As': 2}",22.0,0.0,,,
Fe Se,{},"{'Fe': 1, 'Se': 1}",8.0,0.0,,,10.7566/jpsj.87.054704
Li x (C 18 H 39 N) y Fe 1-z Se,"{'z': [], 'x': [], 'y': []}",,42.0,0.0,,,10.7566/jpsj.87.054704
Fe Se,{},"{'Fe': 1, 'Se': 1}",43.0,0.0,films,,10.7566/jpsj.87.054704
Li x Fe Se,{'x': []},,8.0,0.0,,,10.7566/jpsj.87.054704
Li x (C 8 H 19 N) y Fe 1-z Se,"{'z': [], 'x': [], 'y': []}",,42.0,0.0,,,10.7566/jpsj.87.054704
Ce Co In 5,{},"{'Ce': 1, 'Co': 1, 'In': 5}",2.3,0.0,,,10.1103/physrevlett.106.087003
Y B Co C O,{},"{'Y': 1, 'B': 1, 'Co': 1, 'C': 1, 'O': 1}",55.0,0.0,,,10.1088/1361-6668/aa5bc0
Pr Ba 2 Cu 3 O 7,{},"{'Pr': 1, 'Ba': 2, 'Cu': 3, 'O': 7}",80.0,0.0,,,10.1088/1361-6668/aa5bc0
I V Cs,{},"{'I': 1, 'V': 1, 'Cs': 1}",61.5,0.0,,,10.1088/1361-6668/aa5bc0
Y B Co C O,{},"{'Y': 1, 'B': 1, 'Co': 1, 'C': 1, 'O': 1}",76.4,0.0,,,10.1088/1361-6668/aa5bc0
Y Ba 2 Cu 3 O 7-δ,{'δ': []},,80.0,0.0,thin,,10.1063/1.5037540
Bi 2 Sr 2 Ca Cu 2 O 8,{},"{'Bi': 2, 'Sr': 2, 'Ca': 1, 'Cu': 2, 'O': 8}",87.5,0.0,single crystal,,10.1209/epl/i2001-00452-6
Nb 3 Sn,{},"{'Nb': 3, 'Sn': 1}",17.58,0.0,thin film,,
Nb 3 Sn,{},"{'Nb': 3, 'Sn': 1}",17.93,0.0,films,,
Ir 0.95 Pd 0.05 Te 2,{},"{'Ir': 0.95, 'Pd': 0.05, 'Te': 2}",2.5,0.0,,,10.1103/physrevb.89.100501
Ba 1.5,{},{'Ba': 1.5},5.6,0.0,,,10.1038/ncomms1513
Rb 3,{},{'Rb': 3},4.95,0.0,,,10.1038/ncomms1513
K 3,{},{'K': 3},4.75,0.0,,,10.1038/ncomms1513
Ba 1.5,{},{'Ba': 1.5},5.4,0.0,,,10.1038/ncomms1513
Sr 1.5,{},{'Sr': 1.5},5.4,0.0,,,10.1038/ncomms1513
Sr 1.5,{},{'Sr': 1.5},5.6,0.0,,,10.1038/ncomms1513
K 3,{},{'K': 3},5.0,0.0,,,10.1038/ncomms1513
La 0.8 Ca 0.2 Mn O 3,{},"{'La': 0.8, 'Ca': 0.2, 'Mn': 1, 'O': 3}",3.0,0.0,,,10.1103/physrevb.62.5334
Ga As,{},"{'Ga': 1, 'As': 1}",70.0,0.0,,,
Ga 1-x Mn x As,{'x': []},,110.0,0.0,,,10.1103/physrevb.64.165201
Ba 0.6 K 0.4 Fe 2 As,{},"{'Ba': 0.6, 'K': 0.4, 'Fe': 2, 'As': 1}",38.0,0.0,,,10.1103/physrevb.81.094523
Y Ba 2 Cu 3 O 6.6,{},"{'Y': 1, 'Ba': 2, 'Cu': 3, 'O': 6.6}",63.0,0.0,,,
Y Ba 2 Cu 3 O 6.5,{},"{'Y': 1, 'Ba': 2, 'Cu': 3, 'O': 6.5}",55.0,0.0,,,
Y Ba 2 Cu 3 O 6.7,{},"{'Y': 1, 'Ba': 2, 'Cu': 3, 'O': 6.7}",2.7,0.0,,,
Y Ba 2 Cu 3 O 6.57,{},"{'Y': 1, 'Ba': 2, 'Cu': 3, 'O': 6.57}",62.5,0.0,,,10.1103/physrevb.94.134514
Bi 2 Sr 2 Ca Cu 2 O 8,{},"{'Bi': 2, 'Sr': 2, 'Ca': 1, 'Cu': 2, 'O': 8}",90.0,0.0,single crystals,,10.1103/physrevb.94.134514
Eu Eu 0.5 K 0.5 Fe 2 As 2,{},"{'Eu': 1.5, 'K': 0.5, 'Fe': 2, 'As': 2}",32.0,0.0,,,10.1103/physrevb.94.184513
Eu (Fe 1-x Co x) 2 As 2,{'x': [0.1]},"{'Eu': 1, 'Fe': 1.8, 'Co': 0.2, 'As': 2}",10.0,0.0,,,10.1103/physrevb.94.184513
Eu (Fe 1-x Co x) 2 As 2,{'x': [0.18]},"{'Eu': 1, 'Fe': 1.6400000000000001, 'Co': 0.36, 'As': 2}",8.0,0.0,,,10.1103/physrevb.94.184513
Eu (Fe 0.89 Co 0.11) 2 As 2,{},"{'Eu': 1, 'Fe': 1.78, 'Co': 0.22, 'As': 2}",21.0,0.0,single crystals,,10.1103/physrevb.94.184513
Eu (Fe 1-x Co x) 2 As 2,{'x': []},,20.0,0.0,,,10.1103/physrevb.94.184513
Eu B 6,{},"{'Eu': 1, 'B': 6}",20.0,0.0,,,10.1103/physrevb.64.174412
Eu B 6,{},"{'Eu': 1, 'B': 6}",15.0,0.0,,,10.1103/physrevb.64.174412
Mg B 2,{},"{'Mg': 1, 'B': 2}",40.0,0.0,,,10.1143/jjap.51.010105
Bi 2 Sr 2 Cu O 6,{},"{'Bi': 2, 'Sr': 2, 'Cu': 1, 'O': 6}",33.0,0.0,,,10.1103/physrevb.89.195141
Hg Ba 2 Cu O 6,{},"{'Hg': 1, 'Ba': 2, 'Cu': 1, 'O': 6}",95.0,0.0,,,10.1103/physrevb.89.195141
Eu 20,{},{'Eu': 20},16.2,0.0,,,10.1103/physrevb.85.064511
Eu 46,{},{'Eu': 46},18.0,0.0,,,10.1103/physrevb.85.064511
S W C N Ts,{},"{'S': 1, 'W': 1, 'C': 1, 'N': 1, 'Ts': 1}",15.0,0.0,,,10.1142/9789812791207_0008
Hg Ba 2 Cu O 4+δ,{'δ': []},,95.6,0.0,single crystal,,10.1016/s0921-4534(98)00684-4
Hg Ba 2 Cu O 4+δ,{'δ': []},,95.6,0.0,,,10.1016/s0921-4534(98)00684-4
Bi 2 Sr 2 Ca Cu 2 O 8,{},"{'Bi': 2, 'Sr': 2, 'Ca': 1, 'Cu': 2, 'O': 8}",85.0,0.0,single crystal,,10.1016/s0921-4534(98)00684-4
Y Ba 2 Cu 3 O 7-δ,{'δ': []},,93.0,0.0,single crystal,,10.1016/s0921-4534(98)00684-4
Y Ba 2 Cu 3 O 7-δ,{'δ': []},,91.5,0.0,,,10.1016/s0921-4534(98)00684-4
Na V 2 O 5,{},"{'Na': 1, 'V': 2, 'O': 5}",34.0,0.0,,,10.1016/s0921-4526(01)01213-3
Mg B 2,{},"{'Mg': 1, 'B': 2}",40.0,0.0,,,10.1088/1361-6668/aaf2c4
Nb N,{},"{'Nb': 1, 'N': 1}",2.7,0.0,thin film,,10.1103/physrevb.85.014508
Ag,{},{'Ag': 1},1.9,0.0,crystals,,
Bi 2 Se 3,{},"{'Bi': 2, 'Se': 3}",1.9,0.0,crystals,,
Ag x Bi 2 Se 3,{'x': []},,4.5,0.0,,,
Tl 2 Ba 2 Cu O 6+δ,{'δ': []},,35.0,0.0,,,
Tl 2 Ba 2 Cu O 6,{},"{'Tl': 2, 'Ba': 2, 'Cu': 1, 'O': 6}",45.0,0.0,,,
Tl 2 Ba 2 Cu O 6,{},"{'Tl': 2, 'Ba': 2, 'Cu': 1, 'O': 6}",22.0,0.0,,,
Ba 1-x K x Bi O 3,{'x': []},,30.0,0.0,,,
Au 1-x Pt x Te 2,{'x': [0.35]},"{'Au': 0.65, 'Pt': 0.35, 'Te': 2}",4.0,0.0,,,10.1103/physrevb.93.140505
Ga 0.947 Mn 0.053 As,{},"{'Ga': 0.947, 'Mn': 0.053, 'As': 1}",110.0,0.0,,,
(Ga Mn) As,{},"{'Ga': 1, 'Mn': 1, 'As': 1}",0.1,0.0,,,
Ga 1-x Mn x As,{'x': []},,100.0,0.0,,,
Y Ba 2 (Cu 1-y Zn y) 3 O 7-δ,"{'δ': [], 'y': []}",,92.5,0.0,,,10.1002/pssb.200404955
Bi 2 Sr 2 Ca Cu 2 O 8+δ,{'δ': []},,84.2,0.0,,,10.1002/pssb.200404955
Y Ba 2 Cu 4 O 8,{},"{'Y': 1, 'Ba': 2, 'Cu': 4, 'O': 8}",30.0,0.0,,,10.1002/pssb.200404955
Hg Ba 2 Cu O 4+δ,{'δ': []},,95.6,0.0,,,10.1002/pssb.200404955
Y Ba 2 Cu 3 O 7-δ,{'δ': []},,92.9,0.0,,,10.1002/pssb.200404955
La 2-x Sr x Cu O 4,{'x': []},,37.0,0.0,,,10.1002/pssb.200404955
Y 1-y Pr y Ba 2 Cu 3 O 7-δ,"{'δ': [], 'y': []}",,91.0,0.0,,,10.1002/pssb.200404955
Bi Sr 2 Ca 1-y Pr y Cu 2 O 8,{'y': []},,85.4,0.0,,,10.1002/pssb.200404955
Y Ba 2 (Cu 1-y Fe y) 3 O 7-δ,"{'δ': [], 'y': []}",,92.5,0.0,,,10.1002/pssb.200404955
Ba (Fe 0.95 Co 0.075) 2 As 2,{},"{'Ba': 1, 'Fe': 1.9, 'Co': 0.15, 'As': 2}",38.7,0.0,,,10.1103/physrevb.84.174504
Ba (Fe 0.925 Co 0.075) 2 As 2,{},"{'Ba': 1, 'Fe': 1.85, 'Co': 0.15, 'As': 2}",21.4,0.0,,,10.1103/physrevb.84.174504
Mg B 2,{},"{'Mg': 1, 'B': 2}",40.5,0.0,,,10.1103/physrevb.84.174504
Mg 11 B 2,{},"{'Mg': 11, 'B': 2}",38.7,0.0,,,10.1103/physrevb.84.174504
Ca C 6,{},"{'Ca': 1, 'C': 6}",11.5,0.0,,,10.1103/physrevb.91.014502
Bi,{},{'Bi': 1},21.0,0.0,,,10.1103/physrevb.91.014502
U Pt 3,{},"{'U': 1, 'Pt': 3}",0.5,0.0,,,10.1007/bf02583810
Ce Fe As O 1-δ,{'δ': []},,46.5,0.0,,,10.1103/physrevb.82.134514
Mg B 2,{},"{'Mg': 1, 'B': 2}",36.0,0.0,films,5 × 5 mm MgO substrate,
Mg B 2,{},"{'Mg': 1, 'B': 2}",36.0,0.0,,,
Al,{},{'Al': 1},1.4,0.0,,,10.1103/physrevlett.76.130
Ba (Fe 0.9 Co 0.1) 2 As 2,{},"{'Ba': 1, 'Fe': 1.8, 'Co': 0.2, 'As': 2}",26.0,0.0,epitaxial film,,10.1103/physrevb.93.174515
Li Ti 2 O 4,{},"{'Li': 1, 'Ti': 2, 'O': 4}",12.0,0.0,,,10.1016/j.physb.2008.11.079
Na 0.5 Co O 2,{},"{'Na': 0.5, 'Co': 1, 'O': 2}",51.0,0.0,,,10.1103/physrevb.77.045110
Mo Ge,{},"{'Mo': 1, 'Ge': 1}",5.5,0.0,films,,10.1103/physrevb.74.214520
Bi 2 Sr 2 Cu O 6,{},"{'Bi': 2, 'Sr': 2, 'Cu': 1, 'O': 6}",9.0,0.0,,,10.1088/0953-2048/22/4/045010
Y Ba 2 Cu 3 O 7-δ,{'δ': []},,90.0,0.0,,,10.1088/0953-2048/22/4/045010
Bi 2 Sr 2 Ca Cu 2 O 8,{},"{'Bi': 2, 'Sr': 2, 'Ca': 1, 'Cu': 2, 'O': 8}",90.0,0.0,,,10.1088/0953-2048/22/4/045010
B c2,{'c': []},,13.5,0.0,,,10.1109/tasc.2016.2633407
B c2,{'c': []},,20.5,0.0,,,10.1109/tasc.2016.2633407
Nb,{},{'Nb': 1},9.26,0.0,,,10.1116/1.1445168
Tl Ba 2 Ca n-1 Cu n O y,"{'n': [], 'y': []}",,100.0,0.0,,,10.1103/physrevb.84.014508
Bi 2 Sr 2-x La x Cu O 6+δ,"{'δ': [], 'x': [0.4]}",,29.0,0.0,,,10.1209/epl/i2002-00245-y
Ga 1-x Mn x As,{'x': []},,110.0,0.0,,,10.12693/aphyspola.102.659
(Ca 1-x Na x) Fe 2 As 2,{'x': []},,33.0,0.0,,,10.1088/1367-2630/14/5/053034
Ba Fe 2 As 2,{},"{'Ba': 1, 'Fe': 2, 'As': 2}",38.0,0.0,,,10.1088/1367-2630/14/5/053034
Ba Ti 2 Sb 2-x Bi x O,{'x': []},,5.5,0.0,,,
Ba Ti 2 Bi 2 O,{},"{'Ba': 1, 'Ti': 2, 'Bi': 2, 'O': 1}",3.7,0.0,,,
Ba 1-x Na x Ti 2 Sb 2 O,{'x': []},,1.2,0.0,,,
Th Mo 2 Si 2 C,{},"{'Th': 1, 'Mo': 2, 'Si': 2, 'C': 1}",2.2,0.0,,,
Fe S C,{},"{'Fe': 1, 'S': 1, 'C': 1}",50.0,0.0,,,10.1016/j.physc.2009.05.091
K Fe 2 As 2,{},"{'K': 1, 'Fe': 2, 'As': 2}",3.0,0.0,,,10.1103/physrevb.84.060507
La Fe P O,{},"{'La': 1, 'Fe': 1, 'P': 1, 'O': 1}",6.0,0.0,,,10.1103/physrevb.84.060507
(Ba 1-x K x) Fe 2 As 2,{'x': []},,37.0,0.0,,,10.1103/physrevb.84.060507
Nb Ti N,{},"{'Nb': 1, 'Ti': 1, 'N': 1}",14.7,0.0,film,,10.1007/s10909-016-1579-8
Ce O 1-x F x Fe As,{'x': [0.1]},"{'Ce': 1, 'O': 0.9, 'F': 0.1, 'Fe': 1, 'As': 1}",38.4,0.0,,,
Ce O 0.8 F 0.2 Fe As,{},"{'Ce': 1, 'O': 0.8, 'F': 0.2, 'Fe': 1, 'As': 1}",42.5,0.0,,,
Y,{},{'Y': 1},20.0,115.0,,,10.1088/1742-6596/121/5/052006
Li,{},{'Li': 1},0.325,115.0,,,10.1088/1742-6596/121/5/052006
Al,{},{'Al': 1},1.17,6.1,,,10.1088/1742-6596/121/5/052006
Ca Li 2,{},"{'Ca': 1, 'Li': 2}",1.1,0.0,,,10.1088/1742-6596/121/5/052006
Mg B 2,{},"{'Mg': 1, 'B': 2}",40.0,0.0,,,10.1088/1742-6596/121/5/052006
La Pr Ca B C O,{},"{'La': 1, 'Pr': 1, 'Ca': 1, 'B': 1, 'C': 1, 'O': 1}",78.0,0.0,,,10.1016/s0038-1098(03)00658-6
Mg C Ni 3,{},"{'Mg': 1, 'C': 1, 'Ni': 3}",8.0,0.0,,,10.1103/physrevb.68.064503
Mg C Ni 2.95 V 0.05,{},"{'Mg': 1, 'C': 1, 'Ni': 2.95, 'V': 0.05}",5.5,0.0,,,10.1103/physrevb.68.064503
Mg C 0.96 Ni 3,{},"{'Mg': 1, 'C': 0.96, 'Ni': 3}",8.0,0.0,,,10.1103/physrevb.68.064503
(C F) O verdoped,"{'v': [], 'p': [], 'e': [], 'o': [], 'r': [], 'd': []}",,70.0,0.0,,,
Bi 2 Sr 2 Ca 2 Cu 3 O 10+x,{'x': []},,110.0,0.0,crystals,,
Ba Fe 1.85 Co 0.15 As 2,{},"{'Ba': 1, 'Fe': 1.85, 'Co': 0.15, 'As': 2}",25.0,0.0,single crystals,,10.1103/physrevb.83.054510
Ba Ti O 3,{},"{'Ba': 1, 'Ti': 1, 'O': 3}",100.0,0.0,,,10.1103/physrevb.97.144507
Fe Se,{},"{'Fe': 1, 'Se': 1}",37.0,0.0,Bulk,,10.1103/physrevb.97.144507
Sr Pd 2 Ge 2,{},"{'Sr': 1, 'Pd': 2, 'Ge': 2}",2.7,0.0,,,10.1103/physrevb.85.014520
Sr Pd 2 Ge 2,{},"{'Sr': 1, 'Pd': 2, 'Ge': 2}",2.9,0.0,,,10.1103/physrevb.85.014520
K Fe 2 As 2,{},"{'K': 1, 'Fe': 2, 'As': 2}",3.0,0.0,,,10.1103/physrevb.85.014520
Ca Fe 2 As 2,{},"{'Ca': 1, 'Fe': 2, 'As': 2}",38.0,0.0,,,10.1103/physrevb.85.014520
Sr Fe 2 As 2,{},"{'Sr': 1, 'Fe': 2, 'As': 2}",38.0,0.0,,,10.1103/physrevb.85.014520
Ba Fe 2 As 2,{},"{'Ba': 1, 'Fe': 2, 'As': 2}",38.0,0.0,,,10.1103/physrevb.85.014520
Mo 4 Ga 21-y Te y,{'y': []},,5.0,0.0,,,10.1038/s41598-019-49846-y
Mo 6 Ga 31,{},"{'Mo': 6, 'Ga': 31}",8.0,0.0,,,10.1038/s41598-019-49846-y
Mo 8 Ga 41,{},"{'Mo': 8, 'Ga': 41}",9.8,0.0,,,10.1038/s41598-019-49846-y
Mo 8 Ga 41,{},"{'Mo': 8, 'Ga': 41}",9.9,0.0,,,10.1038/s41598-019-49846-y
Mo 8 Ga 41,{},"{'Mo': 8, 'Ga': 41}",9.8,0.0,,,10.1088/2053-1591/aae5b5
Re Ga 5,{},"{'Re': 1, 'Ga': 5}",18.0,0.0,,,10.1088/2053-1591/aae5b5
Mo 6 Ga 31,{},"{'Mo': 6, 'Ga': 31}",8.0,0.0,,,10.1088/2053-1591/aae5b5
Mg B 2,{},"{'Mg': 1, 'B': 2}",88.0,0.0,films,,10.1063/1.1418026
Mg B 2,{},"{'Mg': 1, 'B': 2}",39.0,0.0,films,,10.1063/1.1418026
Mg B 2,{},"{'Mg': 1, 'B': 2}",39.0,0.0,,,10.1063/1.1418026
Hg Ba 2 Ca 2 Cu 3 O 8,{},"{'Hg': 1, 'Ba': 2, 'Ca': 2, 'Cu': 3, 'O': 8}",134.0,0.0,,,10.1038/nmat3995
Nb N,{},"{'Nb': 1, 'N': 1}",4.21,0.0,film,,10.1103/physrevb.95.054513
Pu Ga 3,{},"{'Pu': 1, 'Ga': 3}",3.0,0.0,,,10.1103/physrevb.72.045135
Mg (B 1-x C x) 2,{'x': []},,19.0,0.0,single crystals,,10.1007/978-3-540-71023-3_23
Mg 1-x Al x B 2,{'x': [0.2]},"{'Mg': 0.8, 'Al': 0.2, 'B': 2}",24.0,0.0,single crystals,,10.1007/978-3-540-71023-3_23
La 2 Cu O 4 La 1.64 Sr 0.36 Cu O 4,{},"{'La': 3.6399999999999997, 'Cu': 2, 'O': 8, 'Sr': 0.36}",38.0,0.0,,,10.1103/physrevlett.102.107004
Cu x Bi 2 Se 3,{'x': []},,3.8,0.0,,,10.1103/physrevb.91.060502
Y,{},{'Y': 1},20.0,0.0,,,10.1016/j.physc.2007.03.361
Pu Co Ga 5,{},"{'Pu': 1, 'Co': 1, 'Ga': 5}",19.0,0.0,,,10.1016/j.physc.2007.03.361
Mg B 2,{},"{'Mg': 1, 'B': 2}",40.0,50.0,,,10.1016/j.physc.2007.03.361
Al,{},{'Al': 1},3.0,0.0,ultrathin film,,10.1209/0295-5075/124/48005
Ta Se 3,{},"{'Ta': 1, 'Se': 3}",2.0,0.0,,,
O H Fe Se 23,{},"{'O': 1, 'H': 1, 'Fe': 1, 'Se': 23}",35.0,0.0,,,
La Fe As O 1-x F x,{'x': []},,26.0,0.0,,,10.1143/jpsj.78.063702
Li Fe As,{},"{'Li': 1, 'Fe': 1, 'As': 1}",18.0,0.0,,,10.1143/jpsj.78.063702
(Ba 1-x K x) Fe 2 As 2,{'x': []},,38.0,0.0,,,10.1143/jpsj.78.063702
Fe Se,{},"{'Fe': 1, 'Se': 1}",8.0,0.0,,,10.1143/jpsj.78.063702
K Fe 2 As 2,{},"{'K': 1, 'Fe': 2, 'As': 2}",3.8,0.0,,,10.1143/jpsj.78.063702
Mo 3 S 7,{},"{'Mo': 3, 'S': 7}",44.0,0.0,,,
Fe Se 6,{},"{'Fe': 1, 'Se': 6}",37.0,0.0,,,10.12693/aphyspola.121.820
Sr Ti O,{},"{'Sr': 1, 'Ti': 1, 'O': 1}",0.3,0.0,,,10.5488/cmp.11.131
Ba F e1.82 N i0.18 As 2,"{'e': [], 'i': []}",,8.0,0.0,crystal,,10.1103/physrevb.84.052510
Mg B 2,{},"{'Mg': 1, 'B': 2}",40.0,0.0,,,10.1103/physrevb.77.174506
Ti N,{},"{'Ti': 1, 'N': 1}",4.0,0.0,films,,10.1063/1.4913418
Y Ba 2 Cu 3 O 6.95,{},"{'Y': 1, 'Ba': 2, 'Cu': 3, 'O': 6.95}",93.0,0.0,,,10.1103/physrevb.63.092508
Y Ba 2 Cu 3 O 6.95,{},"{'Y': 1, 'Ba': 2, 'Cu': 3, 'O': 6.95}",65.0,0.0,single crystals,,10.1103/physrevb.63.092508
Y Ba 2 Cu 3 O 6+x,{'x': []},,93.0,0.0,,,10.1103/physrevb.63.092508
Sm Fe As O 1-x F x,{'x': []},,50.0,0.0,,,10.1088/0953-2048/24/9/095014
Pr Fe As O 0.6 F 0.35,{},"{'Pr': 1, 'Fe': 1, 'As': 1, 'O': 0.6, 'F': 0.35}",24.0,0.0,,,10.1103/physrevlett.120.087001
Sm Fe As (O F),{},"{'Sm': 1, 'Fe': 1, 'As': 1, 'O': 1, 'F': 1}",55.0,0.0,thin films,,10.1103/physrevlett.120.087001
Fe Se,{},"{'Fe': 1, 'Se': 1}",65.0,0.0,,SrTiO 3,10.1103/physrevlett.120.087001
Fe Se,{},"{'Fe': 1, 'Se': 1}",40.0,0.0,,,10.1103/physrevlett.120.087001
Bi 2 Sr 2-x La x Cu O 6+δ,"{'δ': [], 'x': []}",,30.0,0.0,,,10.1103/physrevb.82.094523
K Fe 2 As 2,{},"{'K': 1, 'Fe': 2, 'As': 2}",4.0,0.0,,,10.1103/physrevb.91.214506
Ba 1-x K x Fe 2 As 2,{'x': [0.4]},"{'Ba': 0.6, 'K': 0.4, 'Fe': 2, 'As': 2}",30.0,0.0,,,10.1103/physrevb.91.214506
Mg B 2,{},"{'Mg': 1, 'B': 2}",0.5,0.0,,,10.4028/www.scientific.net/msf.792.21
Mg B 12,{},"{'Mg': 1, 'B': 12}",37.0,0.0,,,10.4028/www.scientific.net/msf.792.21
Mg B 12,{},"{'Mg': 1, 'B': 12}",37.0,2.0,,,10.4028/www.scientific.net/msf.792.21
Mg (B 0.875 C 0.125) 2,{},"{'Mg': 1, 'B': 1.75, 'C': 0.25}",2.0,0.0,single crystal,,10.4028/www.scientific.net/msf.792.21
Pu Co In 5,{},"{'Pu': 1, 'Co': 1, 'In': 5}",2.5,0.0,,,10.1209/0295-5075/97/57001
Pu Rh Ga 5,{},"{'Pu': 1, 'Rh': 1, 'Ga': 5}",8.7,0.0,,,10.1209/0295-5075/97/57001
Pu Co Ga 5,{},"{'Pu': 1, 'Co': 1, 'Ga': 5}",18.5,0.0,,,10.1209/0295-5075/97/57001
Mg B 2,{},"{'Mg': 1, 'B': 2}",39.0,0.0,,,10.1103/physrevb.73.180501
Ba 0.67 K 0.33 Fe 2 As 2,{},"{'Ba': 0.67, 'K': 0.33, 'Fe': 2, 'As': 2}",38.0,0.0,,,10.1103/physrevb.90.100502
Ca K Fe 4 As 4,{},"{'Ca': 1, 'K': 1, 'Fe': 4, 'As': 4}",35.0,0.0,,,10.1103/physrevb.97.224521
K Fe 2 As 2,{},"{'K': 1, 'Fe': 2, 'As': 2}",3.8,0.0,,,10.1103/physrevb.97.224521
(Li 0.8 Fe 0.2) O H Fe 2 Se 2,{},"{'Li': 0.8, 'Fe': 2.2, 'O': 1, 'H': 1, 'Se': 2}",42.0,0.0,,,10.1021/acs.chemmater.5b02164
Sr 2 Ru O 4,{},"{'Sr': 2, 'Ru': 1, 'O': 4}",1.5,0.0,single crystals,,
Y Ba 2 Cu 3 O y,{'y': []},,100.0,0.0,,,10.1038/ncomms7438
Mg B 2,{},"{'Mg': 1, 'B': 2}",40.0,0.0,,,10.1063/1.2805650
(In Mn) As and (Ga Mn) As,"{'n': [], 'a': [], 'd': []}",,20.0,0.0,,,
Sb 2 Te 3,{},"{'Sb': 2, 'Te': 3}",8.6,1.4,crystal,,10.1038/ncomms9279
Bi 2 Se 3,{},"{'Bi': 2, 'Se': 3}",55.0,0.0,,,10.1038/ncomms9279
Mg B 2,{},"{'Mg': 1, 'B': 2}",39.0,0.0,,,10.1103/physrevb.65.094512
Li Fe As,{},"{'Li': 1, 'Fe': 1, 'As': 1}",2.0,0.0,,,10.1103/physrevb.89.085120
Na Fe As,{},"{'Na': 1, 'Fe': 1, 'As': 1}",18.0,0.0,,,10.1103/physrevb.89.085120
Cu Nb 15,{},"{'Cu': 1, 'Nb': 15}",6.9,0.0,,,10.1016/j.acme.2014.12.002
Nb,{},{'Nb': 1},9.2,0.0,,,10.1016/j.acme.2014.12.002
Cu Nb 15k,{'k': []},,8.2,0.0,,,10.1016/j.acme.2014.12.002
Bi 2 Sr 2 Ca 0.92 Y 0.08 Cu 2 O 8+δ,{'δ': []},,60.0,0.0,,,10.1126/science.1133411
Bi 2 Sr 2 Ca Cu 2 O 8,{},"{'Bi': 2, 'Sr': 2, 'Ca': 1, 'Cu': 2, 'O': 8}",30.0,0.0,,,10.1126/science.1133411
Bi 2 Sr 2 (Ca Y) Cu 2 O 8,{},"{'Bi': 2, 'Sr': 2, 'Ca': 1, 'Y': 1, 'Cu': 2, 'O': 8}",50.0,0.0,crystals,,10.1126/science.1133411
Mg B 2,{},"{'Mg': 1, 'B': 2}",39.0,0.0,,,10.1103/physrevb.65.132518
Fe Se,{},"{'Fe': 1, 'Se': 1}",30.0,0.0,potassium intercalated,,10.1016/j.ssc.2017.08.002
K x Fe 2-y Se 2,"{'x': [], 'y': []}",,30.0,0.0,,,10.1016/j.ssc.2017.08.002
Rb x Fe 2-y Se 2,"{'x': [], 'y': []}",,30.0,0.0,,,10.1016/j.ssc.2017.08.002
Cs x Fe 2-y Se 2,"{'x': [], 'y': []}",,30.0,0.0,,,10.1016/j.ssc.2017.08.002
Tl x Fe 2-y Se 2,"{'x': [], 'y': []}",,30.0,0.0,,,10.1016/j.ssc.2017.08.002
Mg B 2,{},"{'Mg': 1, 'B': 2}",40.0,0.0,,,10.1103/physrevb.65.180505
Mg B 2,{},"{'Mg': 1, 'B': 2}",13.0,0.0,,,10.1140/epjb/e2008-00174-1
Mg B 2,{},"{'Mg': 1, 'B': 2}",40.0,0.0,,,10.1140/epjb/e2008-00174-1
Mg B 2,{},"{'Mg': 1, 'B': 2}",38.0,0.0,polycrystalline,,10.1140/epjb/e2008-00174-1
Mg B 2,{},"{'Mg': 1, 'B': 2}",39.0,0.0,,,10.1140/epjb/e2008-00174-1
Mg B 2,{},"{'Mg': 1, 'B': 2}",37.2,0.0,,,10.1140/epjb/e2008-00174-1