Material,Substitutions,Composition,Tc (K),Pressure (GPa),Shape,Substrate,DOI
K 0.8 Fe 1.7 Se 2,{},"{'K': 0.8, 'Fe': 1.7, 'Se': 2}",48.0,12.5,,,10.1287/6e17c495-4830-4387-bc4d-9a7e73100767
Sr 2 Ru O 4,{},"{'Sr': 2, 'Ru': 1, 'O': 4}",1.5,0.0,,,10.1016/j.crhy.2015.12.003
Y Ba 2 Cu 3 O 7-δ,{'δ': []},,90.0,0.0,films,,10.1140/epjb/e2004-00057-5
Lu Ni 2 B 2 C,{},"{'Lu': 1, 'Ni': 2, 'B': 2, 'C': 1}",16.6,0.0,,,10.1103/physrevlett.83.5350
Li 2 B 3 C,{},"{'Li': 2, 'B': 3, 'C': 1}",50.0,0.0,,,10.1103/physrevb.91.045132
Li 2 B 3 C,{},"{'Li': 2, 'B': 3, 'C': 1}",62.9,0.0,,,10.1103/physrevb.91.045132
La Fe As O,{},"{'La': 1, 'Fe': 1, 'As': 1, 'O': 1}",26.0,0.0,,,10.1209/0295-5075/96/27014
La Fe As O 1-x F x,{'x': []},,25.0,0.0,thin film,,10.1142/s0217979213300016
Sm Fe As O,{},"{'Sm': 1, 'Fe': 1, 'As': 1, 'O': 1}",55.0,0.0,,,10.1142/s0217979213300016
La Fe As O 1-x F x,{'x': []},,20.0,0.0,thin films,,10.1142/s0217979213300016
Tl 2 Ba 2 Cu O 6+δ,{'δ': []},,15.0,0.0,,,10.1209/0295-5075/104/27010
Sr 2 Ru O 4,{},"{'Sr': 2, 'Ru': 1, 'O': 4}",1.5,0.0,,,10.1209/0295-5075/104/27010
Mg B 2,{},"{'Mg': 1, 'B': 2}",40.0,0.0,,,10.1016/j.physc.2005.04.007
Cu,{},{'Cu': 1},17.0,0.0,,,
(Ba K) Bi O 3,{},"{'Ba': 1, 'K': 1, 'Bi': 1, 'O': 3}",32.0,0.0,,,10.1103/physrevx.3.021011
Y,{},{'Y': 1},20.0,0.0,,,10.1103/physrevx.3.021011
(Ba K) 3 (Bi Pb) 2 O 7,{},"{'Ba': 3, 'K': 3, 'Bi': 2, 'Pb': 2, 'O': 7}",2.0,0.0,,,10.1103/physrevx.3.021011
Zr N Cl,{},"{'Zr': 1, 'N': 1, 'Cl': 1}",25.0,0.0,,,10.1103/physrevx.3.021011
(Ba La) Pb O 3,{},"{'Ba': 1, 'La': 1, 'Pb': 1, 'O': 3}",20.0,0.0,,,10.1103/physrevx.3.021011
Ba Bi O 3,{},"{'Ba': 1, 'Bi': 1, 'O': 3}",32.0,0.0,,,10.1103/physrevx.3.021011
Ba 1-x K x Bi O 3,{'x': []},,32.0,0.0,,,10.1103/physrevx.3.021011
Mg B 2,{},"{'Mg': 1, 'B': 2}",40.0,0.0,,,10.1103/physrevx.3.021011
Fe Se,{},"{'Fe': 1, 'Se': 1}",14.0,0.0,,,10.1140/epjb/e2010-10473-5
Fe Se,{},"{'Fe': 1, 'Se': 1}",8.0,0.0,,,10.1140/epjb/e2010-10473-5
U Pd 2 Al 3,{},"{'U': 1, 'Pd': 2, 'Al': 3}",2.0,0.0,,,10.1103/physrevb.63.104503
Ho Mo 6 S 8,{},"{'Ho': 1, 'Mo': 6, 'S': 8}",1.8,0.0,,,10.1103/physrevb.63.104503
Ru Sr 2 Gd Cu 2 O 8,{},"{'Ru': 1, 'Sr': 2, 'Gd': 1, 'Cu': 2, 'O': 8}",45.0,0.0,,,10.1103/physrevb.63.104503
U Ni 2 Al 3,{},"{'U': 1, 'Ni': 2, 'Al': 3}",1.0,0.0,,,10.1103/physrevb.63.104503
U Pt 3,{},"{'U': 1, 'Pt': 3}",0.5,0.0,,,10.1103/physrevb.63.104503
Er Rh 4 B 4,{},"{'Er': 1, 'Rh': 4, 'B': 4}",8.7,0.0,,,10.1103/physrevb.63.104503
Er Rh 4 B 4,{},"{'Er': 1, 'Rh': 4, 'B': 4}",0.7,0.0,,,10.1103/physrevb.63.104503
U Ru 2 Si 2,{},"{'U': 1, 'Ru': 2, 'Si': 2}",1.5,0.0,,,10.1103/physrevb.63.104503
Mg Ir B,{},"{'Mg': 1, 'Ir': 1, 'B': 1}",5.0,0.0,,,10.1103/physrevb.76.064527
Bi 2 Sr 2 Ca Cu 2 O 8,{},"{'Bi': 2, 'Sr': 2, 'Ca': 1, 'Cu': 2, 'O': 8}",85.0,0.0,,,10.1016/s0375-9601(01)00587-4
La 1.846 Sr 0.154 Cu O 4,{},"{'La': 1.846, 'Sr': 0.154, 'Cu': 1, 'O': 4}",35.0,0.0,crystal,,10.1016/s0375-9601(01)00587-4
Nb,{},{'Nb': 1},93.0,0.0,,,10.1142/s021798490601158x
Y Ba 2 Cu 3 O 7,{},"{'Y': 1, 'Ba': 2, 'Cu': 3, 'O': 7}",93.0,0.0,,,10.1142/s021798490601158x
Y Ba 2 Cu 3 O 7,{},"{'Y': 1, 'Ba': 2, 'Cu': 3, 'O': 7}",91.0,0.0,,,10.1142/s021798490601158x
Bi 2 Sr 2 Ca Cu 2 O 8,{},"{'Bi': 2, 'Sr': 2, 'Ca': 1, 'Cu': 2, 'O': 8}",85.0,0.0,,,10.1209/epl/i2002-00633-9
La 1.94 Sr 0.06 Cu O 4,{},"{'La': 1.94, 'Sr': 0.06, 'Cu': 1, 'O': 4}",7.0,0.0,,,
La 1-x Sr x O Fe As,{'x': []},,25.0,0.0,,,10.1143/jpsj.77.113713
La O 1-x F x Fe As,{'x': []},,28.0,0.0,,,10.1143/jpsj.77.113713
Pr O Fe As,{},"{'Pr': 1, 'O': 1, 'Fe': 1, 'As': 1}",26.0,0.0,,,10.1143/jpsj.77.113713
La O Fe P,{},"{'La': 1, 'O': 1, 'Fe': 1, 'P': 1}",5.0,0.0,,,10.1143/jpsj.77.113713
La O Mn P,{},"{'La': 1, 'O': 1, 'Mn': 1, 'P': 1}",50.0,0.0,,,10.1143/jpsj.77.113713
Bi (Pb),{},"{'Bi': 1, 'Pb': 1}",77.0,0.0,,,10.1016/j.jpcs.2005.10.107
Bi (Pb),{},"{'Bi': 1, 'Pb': 1}",76.0,0.0,,,10.1016/j.jpcs.2005.10.107
Ca Ru O 3,{},"{'Ca': 1, 'Ru': 1, 'O': 3}",87.0,0.0,,,10.1016/s0921-4526(03)00421-6
Ca Ru 1-x Ti x O 3,{'x': []},,34.0,0.0,,,10.1016/s0921-4526(03)00421-6
Mg B 2,{},"{'Mg': 1, 'B': 2}",23.0,0.0,,,10.1088/0953-2048/17/2/001
Nb 3 Ge,{},"{'Nb': 3, 'Ge': 1}",23.0,0.0,,,10.1088/0953-2048/17/2/001
Cu 3 O 6.65,{},"{'Cu': 3, 'O': 6.65}",67.0,0.0,,,
Y Ba 2 Cu 3 O 6.65,{},"{'Y': 1, 'Ba': 2, 'Cu': 3, 'O': 6.65}",67.0,0.0,,,
Y Ba 2 Cu 3 O 6.92,{},"{'Y': 1, 'Ba': 2, 'Cu': 3, 'O': 6.92}",94.0,0.0,,,
Y Ba 2 Cu 3 O 6.48,{},"{'Y': 1, 'Ba': 2, 'Cu': 3, 'O': 6.48}",45.0,0.0,,,
Y Ba 2 Cu 3 O 6+x,{'x': []},,95.0,0.0,,,10.1103/physrevb.71.094514
Nb 0.99 B 2,{},"{'Nb': 0.99, 'B': 2}",0.13,0.0,,,10.1016/s0921-4534(03)01091-8
Nb B 2,{},"{'Nb': 1, 'B': 2}",0.31,0.0,,,10.1016/s0921-4534(03)01091-8
Nb B 2,{},"{'Nb': 1, 'B': 2}",1.2,0.0,,,10.1016/s0921-4534(03)01091-8
Nb B x,{'x': []},,1.2,0.0,,,10.1016/s0921-4534(03)01091-8
Nb B 1.93,{},"{'Nb': 1, 'B': 1.93}",0.004,0.0,,,10.1016/s0921-4534(03)01091-8
Sr Ti O 3,{},"{'Sr': 1, 'Ti': 1, 'O': 3}",100.0,0.0,,,10.1088/1367-2630/18/8/082001
Fe Se,{},"{'Fe': 1, 'Se': 1}",9.0,0.0,,,10.1088/1367-2630/18/8/082001
Nb Ti N,{},"{'Nb': 1, 'Ti': 1, 'N': 1}",13.0,0.0,films,,10.1103/physrevb.85.205404
Mg B 2,{},"{'Mg': 1, 'B': 2}",40.0,0.0,,,10.1103/physrevb.64.214508
Pr Ba 2 Cu 3 O 7-δ,{'δ': []},,20.0,0.0,,,
Li x Sn Se 2,{'x': []},,7.6,0.0,,,10.1088/2053-1583/ab3ea1
Li x Zr N Cl,{'x': []},,12.0,0.0,,,10.1088/2053-1583/ab3ea1
Li 0.2 (P C) y Sn Se 2,{'y': []},,7.6,0.0,,,10.1088/2053-1583/ab3ea1
Li 0.2 Sn Se 2,{},"{'Li': 0.2, 'Sn': 1, 'Se': 2}",4.5,0.0,,,10.1088/2053-1583/ab3ea1
Li 0.2 Sn Se 2,{},"{'Li': 0.2, 'Sn': 1, 'Se': 2}",7.0,0.0,,,10.1088/2053-1583/ab3ea1
(Sr 1-x K x) Fe 2 As 2,{'x': []},,32.0,0.0,,,
Eu,{},{'Eu': 1},20.0,0.0,,,10.1063/1.2163276
Bi 2 Sr 2 Ca Cu 2 O 8,{},"{'Bi': 2, 'Sr': 2, 'Ca': 1, 'Cu': 2, 'O': 8}",6.0,0.0,,,10.1088/1367-2630/13/12/123009
Bi 2 Te 3,{},"{'Bi': 2, 'Te': 3}",70.0,0.0,,,10.1088/1367-2630/aa6b8a
Li Fe As,{},"{'Li': 1, 'Fe': 1, 'As': 1}",17.0,0.0,,,
Li Fe As,{},"{'Li': 1, 'Fe': 1, 'As': 1}",20.5,0.0,,,
Fe (Se 0.5 Te 0.5),{},"{'Fe': 1, 'Se': 0.5, 'Te': 0.5}",3.4,0.0,films,,10.1016/j.physc.2011.05.012
Zr Ni 2 Ga,{},"{'Zr': 1, 'Ni': 2, 'Ga': 1}",0.35,0.0,,,10.1103/physrevb.78.184506
Zr Ni 2 Ga,{},"{'Zr': 1, 'Ni': 2, 'Ga': 1}",2.87,0.0,,,10.1103/physrevb.78.184506
Zr 0.3 Nb 0.7 Ni 2 Ga,{},"{'Zr': 0.3, 'Nb': 0.7, 'Ni': 2, 'Ga': 1}",1.8,0.0,,,10.1103/physrevb.78.184506
Nb Ni 2 C,{},"{'Nb': 1, 'Ni': 2, 'C': 1}",1.54,0.0,,,10.1103/physrevb.78.184506
Y Pd 2 Sn,{},"{'Y': 1, 'Pd': 2, 'Sn': 1}",4.9,0.0,,,10.1103/physrevb.78.184506
Nb Ni 2 Sn 4,{},"{'Nb': 1, 'Ni': 2, 'Sn': 4}",3.4,0.0,,,10.1103/physrevb.78.184506
Zr Ni 2 Ga,{},"{'Zr': 1, 'Ni': 2, 'Ga': 1}",2.9,0.0,,,10.1103/physrevb.78.184506
Ce Ir In 5,{},"{'Ce': 1, 'Ir': 1, 'In': 5}",1.0,3.0,,,10.1103/physrevb.77.214504
(Li 1-x Fe x) O H Fe Se,{'x': []},,42.0,0.0,,,
Sr 14-x Ca x Cu 24 O 41,{'x': []},,10.0,0.0,,,10.1143/jpsj.73.2822
Ir Te 2,{},"{'Ir': 1, 'Te': 2}",2.6,0.0,,,10.7566/jpsj.82.085001
Ir 1-x Rh x Te 2,{'x': []},,4.7,0.0,,,10.7566/jpsj.82.085001
Mg 0.8 Li 0.2 B 2-x C x,{'x': []},,10.0,0.0,,,
Mg B 2-x C x Mg 0.95 Cu 0.05 B 2-x C x,{'x': []},,1.0,0.0,,,
La 1.85 Sr 0.15 Cu O 4,{},"{'La': 1.85, 'Sr': 0.15, 'Cu': 1, 'O': 4}",38.0,0.0,,,10.1007/0-306-47100-0_16
Pb,{},{'Pb': 1},7.2,0.0,,,10.1038/ncomms14549
La Fe As O,{},"{'La': 1, 'Fe': 1, 'As': 1, 'O': 1}",23.0,3.0,,,10.1103/physrevb.90.035104
Li Fe As,{},"{'Li': 1, 'Fe': 1, 'As': 1}",18.0,0.0,,,10.1103/physrevb.90.035104
Fe Se,{},"{'Fe': 1, 'Se': 1}",70.0,0.0,,,10.1103/physrevb.92.224514
Fe Se,{},"{'Fe': 1, 'Se': 1}",40.0,0.0,,,10.1103/physrevb.92.224514
Fe Se,{},"{'Fe': 1, 'Se': 1}",70.0,0.0,monolayers,STO,10.1103/physrevb.92.224514
Er Ni 2 B 2 C,{},"{'Er': 1, 'Ni': 2, 'B': 2, 'C': 1}",9.3,0.0,,,10.1103/physrevlett.100.017003
Er Ni 2 B 2 C,{},"{'Er': 1, 'Ni': 2, 'B': 2, 'C': 1}",11.0,0.0,,,10.1103/physrevlett.100.017003
Bi 2 Sr 2 Cu O 6.09,{},"{'Bi': 2, 'Sr': 2, 'Cu': 1, 'O': 6.09}",1.5,0.0,,,10.1103/physrevb.66.020503
V Se 2,{},"{'V': 1, 'Se': 2}",4.0,0.0,,,
V Se 2,{},"{'V': 1, 'Se': 2}",100.0,0.0,,,
U Ru 2 Si 2,{},"{'U': 1, 'Ru': 2, 'Si': 2}",1.3,0.0,single crystal,,10.1103/physrevlett.100.017004
U Pd 2 Al 3,{},"{'U': 1, 'Pd': 2, 'Al': 3}",2.0,0.0,,,10.1103/physrevb.68.214512
Mg B 2,{},"{'Mg': 1, 'B': 2}",39.0,0.0,,,10.1143/jjap.45.l493
Fe S C,{},"{'Fe': 1, 'S': 1, 'C': 1}",37.0,0.0,,,
Sr 2 V O 3 Fe As,{},"{'Sr': 2, 'V': 1, 'O': 3, 'Fe': 1, 'As': 1}",37.0,0.0,,,
Ba Fe 2 As 2,{},"{'Ba': 1, 'Fe': 2, 'As': 2}",42.0,0.0,,,10.1016/j.ssc.2014.02.002
Ba Fe 2 As 2,{},"{'Ba': 1, 'Fe': 2, 'As': 2}",38.0,0.0,,,10.1016/j.ssc.2014.02.002
Ba 3 Mn 2 O 8,{},"{'Ba': 3, 'Mn': 2, 'O': 8}",43.0,0.0,,,10.1143/jpsj.70.1790
La Pt 4 Ge 12,{},"{'La': 1, 'Pt': 4, 'Ge': 12}",7.9,0.0,,,10.1103/physrevb.94.054523
La Pt 4 Ge 12,{},"{'La': 1, 'Pt': 4, 'Ge': 12}",8.3,0.0,,,10.1103/physrevb.94.054523
Y Pt Bi,{},"{'Y': 1, 'Pt': 1, 'Bi': 1}",0.77,0.0,,,10.1088/0953-8984/27/27/275701
Ho Ni 2 B 2 C,{},"{'Ho': 1, 'Ni': 2, 'B': 2, 'C': 1}",10.5,0.0,,,10.1088/0953-8984/27/27/275701
Ce Pd Bi,{},"{'Ce': 1, 'Pd': 1, 'Bi': 1}",1.3,0.0,,,10.1088/0953-8984/27/27/275701
Ho Pd Bi,{},"{'Ho': 1, 'Pd': 1, 'Bi': 1}",1.0,0.0,,,10.1088/0953-8984/27/27/275701
Er Pd Bi,{},"{'Er': 1, 'Pd': 1, 'Bi': 1}",1.22,0.0,,,10.1088/0953-8984/27/27/275701
Er Pd Bi,{},"{'Er': 1, 'Pd': 1, 'Bi': 1}",1.2,0.0,,,10.1088/0953-8984/27/27/275701
La Pt Bi,{},"{'La': 1, 'Pt': 1, 'Bi': 1}",0.9,0.0,,,10.1088/0953-8984/27/27/275701
Lu Pd Bi,{},"{'Lu': 1, 'Pd': 1, 'Bi': 1}",1.7,0.0,,,10.1088/0953-8984/27/27/275701
Lu Pt Bi,{},"{'Lu': 1, 'Pt': 1, 'Bi': 1}",1.0,0.0,,,10.1088/0953-8984/27/27/275701
Ba 0.67 K 0.33 Fe 2 As 2,{},"{'Ba': 0.67, 'K': 0.33, 'Fe': 2, 'As': 2}",38.0,0.0,crystal,,10.1103/physrevb.83.144522
Ce 3 Pd In 11,{},"{'Ce': 3, 'Pd': 1, 'In': 11}",0.58,0.0,,,10.1103/physrevb.99.054425
Ce 2 Pd In 8,{},"{'Ce': 2, 'Pd': 1, 'In': 8}",0.68,0.0,,,10.1103/physrevb.99.054425
La 1.85 Ba 0.85 Cu O 4,{},"{'La': 1.85, 'Ba': 0.85, 'Cu': 1, 'O': 4}",38.0,0.0,,,
La O 1-x F x,{'x': []},,28.0,0.0,,,
Ce In 3,{},"{'Ce': 1, 'In': 3}",2.1,0.0,,,10.1103/physrevb.66.134516
Bi 2 Sr 2 Ca Cu 2 O 8+δ,{'δ': []},,70.0,0.0,thin films,,10.1117/12.455524
Ba (Fe 0.926 Co 0.074) 2 As 2,{},"{'Ba': 1, 'Fe': 1.852, 'Co': 0.148, 'As': 2}",22.8,0.0,,,10.1063/1.3660321
Ba (Fe 1-x Co x) 2 As 2,{'x': [0.074]},"{'Ba': 1, 'Fe': 1.852, 'Co': 0.148, 'As': 2}",22.8,0.0,single crystal,,10.1063/1.3660321
Ba (Fe 0.926 Co 0.074) 2 As 2,{},"{'Ba': 1, 'Fe': 1.852, 'Co': 0.148, 'As': 2}",22.8,0.0,single crystals,,10.1063/1.3660321
Cu x Bi 2 Se 3,{'x': []},,4.0,0.0,,,10.7566/jpsj.83.064705
Fe Se,{},"{'Fe': 1, 'Se': 1}",8.0,0.0,,,10.1103/physrevb.81.180508
Ba Fe 2 As 2,{},"{'Ba': 1, 'Fe': 2, 'As': 2}",29.0,0.0,,,10.1103/physrevb.81.180508
Fe Te 0.55 Se 0.45,{},"{'Fe': 1, 'Te': 0.55, 'Se': 0.45}",14.0,0.0,,,10.1103/physrevb.81.180508
Sr 2 Ru O 4,{},"{'Sr': 2, 'Ru': 1, 'O': 4}",1.5,0.0,single crystals,,10.1209/epl/i2000-00455-9
Bi 2 Sr 2 Ca 0.92 Y 0.08 Cu 2 O 8+δ,{'δ': []},,96.0,0.0,single crystals,,10.1126/sciadv.aar1998
Li Fe As,{},"{'Li': 1, 'Fe': 1, 'As': 1}",17.0,0.0,,,10.1103/physrevlett.104.187001
Fe Se,{},"{'Fe': 1, 'Se': 1}",9.0,0.0,,,10.1103/physrevlett.104.187001
K Fe 2 As 2,{},"{'K': 1, 'Fe': 2, 'As': 2}",3.8,0.0,,,10.1103/physrevlett.104.187001
La Fe P O,{},"{'La': 1, 'Fe': 1, 'P': 1, 'O': 1}",6.0,0.0,,,10.1103/physrevlett.104.187001
Li Fe As,{},"{'Li': 1, 'Fe': 1, 'As': 1}",18.0,0.0,,,10.1103/physrevlett.104.187001
Na Fe As,{},"{'Na': 1, 'Fe': 1, 'As': 1}",9.0,0.0,,,10.1103/physrevlett.104.187001
Nd 2-x Ce x Cu O 4,{'x': []},,80.0,0.0,,,10.1103/physrevb.83.054507
Hg Ba 2 Cu O 6,{},"{'Hg': 1, 'Ba': 2, 'Cu': 1, 'O': 6}",80.0,0.0,,,10.1103/physrevb.83.054507
Mo S 2,{},"{'Mo': 1, 'S': 2}",9.0,0.0,,,10.1103/physrevb.101.104512
Mg B 2,{},"{'Mg': 1, 'B': 2}",40.0,0.0,,,10.1103/physrevlett.107.047002
La Fe As O 1-y,{'y': []},,28.0,0.0,,,10.1103/physrevlett.107.047002
La Fe As O 1-x F x,{'x': []},,5.0,0.0,,,10.1103/physrevlett.107.047002
Ba 0.6 K 0.4 Fe 2 As 2,{},"{'Ba': 0.6, 'K': 0.4, 'Fe': 2, 'As': 2}",38.0,0.0,,,10.1103/physrevlett.107.047002
Nb B 2,{},"{'Nb': 1, 'B': 2}",5.0,0.0,,,10.1103/physrevlett.107.047002
Sn 1.1 Mo 6 Se 7.5,{},"{'Sn': 1.1, 'Mo': 6, 'Se': 7.5}",4.2,0.0,,,10.1103/physrevlett.107.047002
Tl Mo 6 Se 7.5,{},"{'Tl': 1, 'Mo': 6, 'Se': 7.5}",12.2,0.0,,,10.1103/physrevlett.107.047002
La Fe As O 1-x F x,{'x': []},,55.0,0.0,,,10.1007/978-94-007-4984-9_11
La 1.6-x Nd 0.4 Sr x Cu O 4,{'x': []},,55.0,0.0,,,10.1007/978-94-007-4984-9_11
La 1.6-x Nd 0.4 Sr x Cu O 4,{'x': []},,70.0,0.0,,,10.1007/978-94-007-4984-9_11
La 2-x Ba x Cu O 4,{'x': []},,55.0,0.0,,,10.1007/978-94-007-4984-9_11
Ce Rh In 5,{},"{'Ce': 1, 'Rh': 1, 'In': 5}",2.1,20.0,,,10.1103/physrevb.67.212504
Ce Te 1.82,{},"{'Ce': 1, 'Te': 1.82}",2.7,5.0,,,10.1103/physrevb.67.212504
Nb Se 3,{},"{'Nb': 1, 'Se': 3}",1.0,0.0,,,10.1103/physrevb.67.212504
Ce Te 1.82,{},"{'Ce': 1, 'Te': 1.82}",2.7,0.0,,,10.1103/physrevb.67.212504
Pr Os 4 Sb 12,{},"{'Pr': 1, 'Os': 4, 'Sb': 12}",1.85,0.0,,,10.1103/physrevb.76.220510
Pr Os 4 Sb 12,{},"{'Pr': 1, 'Os': 4, 'Sb': 12}",7.9,0.0,,,10.1103/physrevlett.103.147002
La Fe As O,{},"{'La': 1, 'Fe': 1, 'As': 1, 'O': 1}",26.0,0.0,,,10.1103/physrevb.79.184526
La Fe As O 1-x F x,{'x': []},,26.0,0.0,,,10.1103/physrevb.79.184526
Ce Rh In 5,{},"{'Ce': 1, 'Rh': 1, 'In': 5}",2.2,1.63,,,10.1103/physrevlett.91.137001
Sr 0.9 La 0.1 Cu O 2,{},"{'Sr': 0.9, 'La': 0.1, 'Cu': 1, 'O': 2}",43.0,0.0,,,10.1103/physrevlett.88.227002
Mg B B 2,{},"{'Mg': 1, 'B': 3}",41.7,0.0,thin films,,10.1088/0953-2048/20/12/015
Al 2 O 3,{},"{'Al': 2, 'O': 3}",41.8,0.0,,,10.1088/0953-2048/20/12/015
Mg B 2 B,{},"{'Mg': 1, 'B': 3}",40.5,0.0,films,,10.1088/0953-2048/20/12/015
Si C,{},"{'Si': 1, 'C': 1}",40.5,0.0,films,,10.1088/0953-2048/20/12/015
Mg B B 2,{},"{'Mg': 1, 'B': 3}",41.0,0.0,thin films,Al 2 O 3,10.1088/0953-2048/20/12/015
Al 2 O 3,{},"{'Al': 2, 'O': 3}",41.0,0.0,thin films,,10.1088/0953-2048/20/12/015
Mg B 2 B,{},"{'Mg': 1, 'B': 3}",40.3,0.0,,,10.1088/0953-2048/20/12/015
Mg B 2 B,{},"{'Mg': 1, 'B': 3}",0.12,0.0,films,,10.1088/0953-2048/20/12/015
Zr 0.13 Mo 0.87 B 2+x,{'x': []},,11.0,0.0,,,10.1016/s0921-4534(02)01842-7
Mg Al B 2,{},"{'Mg': 1, 'Al': 1, 'B': 2}",12.0,0.0,,,10.1016/s0921-4534(02)01842-7
Mg B 2,{},"{'Mg': 1, 'B': 2}",39.0,0.0,,,10.1016/s0921-4534(02)01842-7
Nb B 2,{},"{'Nb': 1, 'B': 2}",3.87,0.0,,,10.1016/s0921-4534(02)01842-7
Mg 0.89 Li 0.11 B B 2,{},"{'Mg': 0.89, 'Li': 0.11, 'B': 3}",35.2,0.0,,,10.1103/physrevb.77.214507
Mg 0.94 Li 0.06 B B 1.96 C 0.04,{},"{'Mg': 0.94, 'Li': 0.06, 'B': 2.96, 'C': 0.04}",34.8,0.0,,,10.1103/physrevb.77.214507
Mg B 1.9 C 0.1,{},"{'Mg': 1, 'B': 1.9, 'C': 0.1}",34.3,0.0,,,10.1103/physrevb.77.214507
Mg 0.88 Li 0.12 B 1.94 B C 0.06,{},"{'Mg': 0.88, 'Li': 0.12, 'B': 2.94, 'C': 0.06}",35.6,0.0,,,10.1103/physrevb.77.214507
Mg (B 1-y C y) 2,{'y': [0.02]},"{'Mg': 1, 'B': 1.96, 'C': 0.04}",37.0,0.0,,,10.1103/physrevb.77.214507
U Te 2,{},"{'U': 1, 'Te': 2}",9.5,0.0,,,
Ca 2-x Na x Cu O 2 Cl 2,{'x': []},,26.0,0.0,,,10.1103/physrevb.63.014505
Bi 2 Sr 2 Ca Cu 2 O 8+δ,{'δ': []},,74.0,0.0,,,
Y Ba 2 Cu 3 O 7-d,{'d': []},,93.5,0.0,,,10.1063/1.5008405
Y Ba 2 Cu 3 O 7-d,{'d': []},,90.0,0.0,,,10.1063/1.5008405
Cu O 2,{},"{'Cu': 1, 'O': 2}",93.0,0.0,,,10.1063/1.5008405
Y Ba 2 Cu 3 O 6.9,{},"{'Y': 1, 'Ba': 2, 'Cu': 3, 'O': 6.9}",90.0,0.0,crystals,,10.1063/1.5008405
(La Ba) 2 Cu O 4,{},"{'La': 2, 'Ba': 2, 'Cu': 1, 'O': 4}",30.0,0.0,,,10.1063/1.5008405
Y Ba 2 Cu 3 O 7-d,{'d': []},,77.0,0.0,,,10.1063/1.5008405
Y B Co C O,{},"{'Y': 1, 'B': 1, 'Co': 1, 'C': 1, 'O': 1}",55.0,0.0,,,10.1103/physrevb.94.174515
Y B Co C O,{},"{'Y': 1, 'B': 1, 'Co': 1, 'C': 1, 'O': 1}",90.0,0.0,,,10.1103/physrevb.94.174515
Nb C,{},"{'Nb': 1, 'C': 1}",11.0,0.0,,,10.1016/j.commatsci.2012.08.003
Li Fe As,{},"{'Li': 1, 'Fe': 1, 'As': 1}",17.2,0.0,Single crystals,,10.1103/physrevb.89.104522
Li 1-δ Fe As,{'δ': []},,11.0,0.0,single crystals,,10.1134/s0021364012100086
Li Fe As,{},"{'Li': 1, 'Fe': 1, 'As': 1}",12.5,0.0,,,10.1134/s0021364012100086
Bi 2 Sr 1.6 La 0.4 Cu O y,{'y': []},,30.0,0.0,,,10.1016/s0921-4534(02)02330-4
(In Mn) As,{},"{'In': 1, 'Mn': 1, 'As': 1}",7.5,0.0,,,10.1007/978-3-662-05310-2_4
Nb 3 Sn,{},"{'Nb': 3, 'Sn': 1}",18.0,0.0,,,10.1143/jpsj.79.083703
Sn Mo 6 S 8,{},"{'Sn': 1, 'Mo': 6, 'S': 8}",12.0,0.0,,,10.1143/jpsj.79.083703
Lu Ni 2 B 2 C,{},"{'Lu': 1, 'Ni': 2, 'B': 2, 'C': 1}",16.0,0.0,,,10.1143/jpsj.79.083703
V 3 Si,{},"{'V': 3, 'Si': 1}",17.0,0.0,,,10.1143/jpsj.79.083703
Mg B 2,{},"{'Mg': 1, 'B': 2}",38.0,0.0,,,10.1143/jpsj.79.083703
La Fe As O 1-x F x,{'x': []},,26.0,0.0,,,10.1063/1.5067367
U Pt 3,{},"{'U': 1, 'Pt': 3}",0.58,0.0,,,10.1143/jpsj.68.3364
Fe Se,{},"{'Fe': 1, 'Se': 1}",8.0,0.0,,,10.1103/physrevb.95.174523
Ba Fe 1.85 Co 0.15 As 2,{},"{'Ba': 1, 'Fe': 1.85, 'Co': 0.15, 'As': 2}",25.0,0.0,,,10.1103/physrevb.94.094517
Ba 0.65 K 0.35 Fe 2 As 2,{},"{'Ba': 0.65, 'K': 0.35, 'Fe': 2, 'As': 2}",34.0,0.0,,,10.1103/physrevb.94.094517
Ba Fe 1.8 Co 0.2 As 2,{},"{'Ba': 1, 'Fe': 1.8, 'Co': 0.2, 'As': 2}",24.5,0.0,,,10.1103/physrevb.94.094517
Ba 0.6 K 0.4 Fe 2 As 2,{},"{'Ba': 0.6, 'K': 0.4, 'Fe': 2, 'As': 2}",38.0,0.0,,,10.1103/physrevb.94.094517
U Co Ge,{},"{'U': 1, 'Co': 1, 'Ge': 1}",0.6,0.0,,,10.7566/jpsj.85.072001
U Pt 3,{},"{'U': 1, 'Pt': 3}",0.5,0.0,,,10.7566/jpsj.85.072001
Y Ba 2 Cu 3 O 6.5,{},"{'Y': 1, 'Ba': 2, 'Cu': 3, 'O': 6.5}",57.5,0.0,single crystals,,10.1103/physrevb.77.174302
Y Ba 2 Cu 3 O 6.5,{},"{'Y': 1, 'Ba': 2, 'Cu': 3, 'O': 6.5}",60.0,0.0,films,,10.1103/physrevb.77.174302
Mg B 2,{},"{'Mg': 1, 'B': 2}",40.0,0.0,,,10.1063/pt.3.4204
H 3 S,{},"{'H': 3, 'S': 1}",200.0,200.0,,,10.1063/pt.3.4204
H 2 S,{},"{'H': 2, 'S': 1}",200.0,200.0,,,10.1063/pt.3.4204
H 2 S,{},"{'H': 2, 'S': 1}",80.0,0.0,,,10.1063/pt.3.4204
Fe Te 0.55 Se 0.45,{},"{'Fe': 1, 'Te': 0.55, 'Se': 0.45}",14.5,0.0,single crystals,,10.1038/s41567-019-0630-5
Nb N,{},"{'Nb': 1, 'N': 1}",16.5,0.0,,,10.1016/s0921-4534(97)00124-x
Mg O,{},"{'Mg': 1, 'O': 1}",16.5,0.0,,,10.1016/s0921-4534(97)00124-x
La Al O 3,{},"{'La': 1, 'Al': 1, 'O': 3}",88.0,0.0,,,10.1016/s0921-4534(97)00124-x
Sr 2 Ru O 4,{},"{'Sr': 2, 'Ru': 1, 'O': 4}",1.44,0.0,,,10.1103/physrevb.70.134520
Sn 0.9 In 0.1 Te,{},"{'Sn': 0.9, 'In': 0.1, 'Te': 1}",1.68,0.0,,,10.7566/jpsj.86.024702
Re 24 Ti 5,{},"{'Re': 24, 'Ti': 5}",6.0,0.0,,,10.1103/physrevb.97.020502
Sr 2 Ru O 4,{},"{'Sr': 2, 'Ru': 1, 'O': 4}",1.5,0.0,,,10.1016/j.physb.2005.11.168
Ca 0.6 Na 0.4 Fe 2 As 2,{},"{'Ca': 0.6, 'Na': 0.4, 'Fe': 2, 'As': 2}",21.0,0.0,,,10.1103/physrevb.79.144516
Ce Cu 2 Si 2,{},"{'Ce': 1, 'Cu': 2, 'Si': 2}",0.65,0.0,,,10.1103/physrevlett.86.4664
Fe Se,{},"{'Fe': 1, 'Se': 1}",27.0,1.48,,,10.1016/j.ssc.2014.10.027
La Fe As O 1-x F x,{'x': []},,26.0,0.0,,,10.1016/j.ssc.2014.10.027
Gd 0.8 Th 0.2 Fe As O,{},"{'Gd': 0.8, 'Th': 0.2, 'Fe': 1, 'As': 1, 'O': 1}",56.0,0.0,,,10.1016/j.ssc.2014.10.027
Nb Se 2,{},"{'Nb': 1, 'Se': 2}",7.2,0.0,,,10.1103/physrevlett.92.217002
Rb 2 Fe 4 Se 5,{},"{'Rb': 2, 'Fe': 4, 'Se': 5}",32.0,0.0,single crystals,,10.1103/physrevb.85.100504
Rb 2 Fe 4 Se 5,{},"{'Rb': 2, 'Fe': 4, 'Se': 5}",32.0,0.0,,,10.1103/physrevb.85.100504
Y B 6,{},"{'Y': 1, 'B': 6}",6.1,0.0,film,,10.1103/physrevmaterials.3.124803
Sm B 6,{},"{'Sm': 1, 'B': 6}",5.8,0.0,,,10.1103/physrevmaterials.3.124803
Sr Pd 2 As 2,{},"{'Sr': 1, 'Pd': 2, 'As': 2}",0.92,0.0,,,10.1103/physrevb.89.214409
Y Ba 2 Cu 3 O 6.7,{},"{'Y': 1, 'Ba': 2, 'Cu': 3, 'O': 6.7}",67.0,0.0,,,10.1002/andp.201200007
Mo Te 2,{},"{'Mo': 1, 'Te': 2}",0.1,0.0,,,10.1038/ncomms11038
Mo Te 2,{},"{'Mo': 1, 'Te': 2}",0.08,0.0,,,10.1038/ncomms11038
Mo Te 2,{},"{'Mo': 1, 'Te': 2}",0.3,0.0,,,10.1038/ncomms11038
Bi 2 Sr 2 Ca Cu 2 O 8,{},"{'Bi': 2, 'Sr': 2, 'Ca': 1, 'Cu': 2, 'O': 8}",90.0,0.0,,,10.1103/physrevb.75.172504
Fe Se,{},"{'Fe': 1, 'Se': 1}",9.0,0.0,,,10.1134/s0021364019030044
Sr 2 Ru O 4,{},"{'Sr': 2, 'Ru': 1, 'O': 4}",1.5,0.0,,,10.1103/physrevb.98.014508
La Fe As O 1-x F x,{'x': []},,26.0,0.0,,,10.1088/0953-2048/29/5/055005
I B S s,{'s': []},,40.0,0.0,,,10.1088/0953-2048/29/5/055005
Y Ba 2 Cu 3 O 7-x,{'x': []},,60.0,0.0,,,10.1007/s10948-008-0360-x