Material,Substitutions,Composition,Tc (K),Pressure (GPa),Shape,Substrate,DOI
Mg B 2,{},"{'Mg': 1, 'B': 2}",38.0,0.0,,,10.1088/1367-2630/ab20eb
Nb,{},{'Nb': 1},9.2,0.0,,,
Pb,{},{'Pb': 1},7.2,0.0,,,
Y Ba 2 Cu 3 O 7-δ,{'δ': []},,41.5,0.0,,,10.1209/0295-5075/79/57005
Sr 2 Ru O 4,{},"{'Sr': 2, 'Ru': 1, 'O': 4}",1.5,0.0,,,10.1103/physrevb.72.115103
Y Ba 2 (Cu 1-y Fe y) 3 O 7-δ,"{'δ': [], 'y': []}",,92.5,0.0,,,10.1007/978-3-540-73253-2_11
Y Ba 2 (Cu 1-y Zn y) 3 O 7-δ,"{'δ': [], 'y': []}",,92.5,0.0,,,10.1007/978-3-540-73253-2_11
Bi Sr 2 Ca 1-y Pr y Cu 2 O 8,{'y': []},,85.4,0.0,,,10.1007/978-3-540-73253-2_11
La 2-x Sr x Cu O 4,{'x': [0.048]},"{'La': 1.952, 'Sr': 0.048, 'Cu': 1, 'O': 4}",0.45,0.0,films,,10.1007/978-3-540-73253-2_11
La 2-x Sr x Cu O 4,{'x': []},,37.0,0.0,,,10.1007/978-3-540-73253-2_11
Bi 2 Sr 2 Ca Cu 2 O 8+δ,{'δ': []},,84.2,0.0,,,10.1007/978-3-540-73253-2_11
Y Ba 2 Cu 3 O 7-δ,{'δ': []},,92.0,0.0,,,10.1007/978-3-540-73253-2_11
Y Ba 2 Cu 3 O 7-δ,{'δ': []},,92.9,0.0,,,10.1007/978-3-540-73253-2_11
Y Ba 2 Cu 3 O 7,{},"{'Y': 1, 'Ba': 2, 'Cu': 3, 'O': 7}",92.12,0.0,,,10.1007/978-3-540-73253-2_11
Y 1-y Pr y Ba 2 Cu 3 O 7-δ,"{'δ': [], 'y': []}",,91.0,0.0,,,10.1007/978-3-540-73253-2_11
Hg Ba 2 Cu O 4+δ,{'δ': []},,95.6,0.0,,,10.1007/978-3-540-73253-2_11
Y Ba 2 Cu 3 O 7-δ,{'δ': []},,91.0,0.0,,,10.1007/978-3-540-73253-2_11
U Te 2,{},"{'U': 1, 'Te': 2}",1.6,0.0,,,10.1103/physrevlett.123.217001
Mg C Ni 3,{},"{'Mg': 1, 'C': 1, 'Ni': 3}",7.0,0.0,sin- gle crystals,,10.7566/jpsj.83.054704
Hg Ba La Cu O,{},"{'Hg': 1, 'Ba': 1, 'La': 1, 'Cu': 1, 'O': 1}",134.0,0.0,,,
Mg B 2,{},"{'Mg': 1, 'B': 2}",39.0,0.0,,,10.1103/physrevb.76.024507
Hg Ba Ca Cu O,{},"{'Hg': 1, 'Ba': 1, 'Ca': 1, 'Cu': 1, 'O': 1}",164.0,310.0,,,
Sr 2 Y Ru 1-x Cu x O 6,{'x': []},,49.0,0.0,,,
La Ba Cu O,{},"{'La': 1, 'Ba': 1, 'Cu': 1, 'O': 1}",35.0,0.0,,,
Sr 3-x Sn O,{'x': [0.5]},"{'Sr': 2.5, 'Sn': 1, 'O': 1}",5.0,0.0,,,10.1103/physrevb.98.100503
Nb N,{},"{'Nb': 1, 'N': 1}",11.6,0.0,,,10.1103/physrevb.99.104508
Nb N,{},"{'Nb': 1, 'N': 1}",1.77,0.0,,,10.1103/physrevb.99.104508
Nb N,{},"{'Nb': 1, 'N': 1}",16.8,0.0,,,10.1103/physrevb.99.104508
Nb N,{},"{'Nb': 1, 'N': 1}",18.2,0.0,,,10.1103/physrevb.99.104508
Ta N 4,{},"{'Ta': 1, 'N': 4}",8.0,0.0,,,10.1103/physrevb.99.104508
Nb N,{},"{'Nb': 1, 'N': 1}",17.5,0.0,,,10.1103/physrevb.99.104508
Nb N,{},"{'Nb': 1, 'N': 1}",19.1,0.0,,,10.1103/physrevb.99.104508
H 3 S,{},"{'H': 3, 'S': 1}",151.0,170.0,,,10.1103/physrevb.92.060508
Se H 3,{},"{'Se': 1, 'H': 3}",100.0,0.0,,,10.1103/physrevb.92.060508
Nb,{},{'Nb': 1},6.6,0.0,,,10.1038/ncomms9053
Ho,{},{'Ho': 1},6.6,0.0,,,10.1038/ncomms9053
La 2 Cu O 4,{},"{'La': 2, 'Cu': 1, 'O': 4}",30.0,0.0,,,10.1103/physrevlett.122.237001
H,{},{'H': 1},240.0,450.0,,,10.1002/pssb.201349087
Hg Ba 2 Ca 2 Cu 3 O 8+y,{'y': []},,135.0,31.0,,,10.1002/pssb.201349087
Mg B 2,{},"{'Mg': 1, 'B': 2}",39.4,0.0,,,10.1002/pssb.201349087
Bi 2 Sr 2 Ca Cu 2 O 8,{},"{'Bi': 2, 'Sr': 2, 'Ca': 1, 'Cu': 2, 'O': 8}",85.0,0.0,,,10.1007/978-94-011-4834-4_7
Bi 2 Sr 2 Ca Cu 2 O 8,{},"{'Bi': 2, 'Sr': 2, 'Ca': 1, 'Cu': 2, 'O': 8}",85.0,0.0,crystal,,10.1007/978-94-011-4834-4_7
Sm Fe As O 1-x F x,{'x': [0.2]},"{'Sm': 1, 'Fe': 1, 'As': 1, 'O': 0.8, 'F': 0.2}",45.0,0.0,,,10.1103/physrevlett.105.167005
Na V 2 O 5,{},"{'Na': 1, 'V': 2, 'O': 5}",34.0,0.0,,,10.1016/s0921-4526(03)00017-6
S Cs La Ni C 2,{},"{'S': 1, 'Cs': 1, 'La': 1, 'Ni': 1, 'C': 2}",2.7,0.0,,,
La Ni Ga 2,{},"{'La': 1, 'Ni': 1, 'Ga': 2}",2.1,0.0,,,
K 3 C 60,{},"{'K': 3, 'C': 60}",30.0,0.0,,,10.7566/jpsj.86.073703
Rb 3 C 60,{},"{'Rb': 3, 'C': 60}",30.0,0.0,,,10.7566/jpsj.86.073703
Cs 3 C 60,{},"{'Cs': 3, 'C': 60}",30.0,0.0,,,10.7566/jpsj.86.073703
V 3 Si,{},"{'V': 3, 'Si': 1}",17.0,0.0,,,10.1088/1742-6596/150/5/052042
Nd Ba 2 Cu 3 O 7-δ,{'δ': []},,95.0,0.0,,,10.1088/1742-6596/150/5/052042
Nb Se 2,{},"{'Nb': 1, 'Se': 2}",6.4,0.0,,,10.1038/ncomms10616
Cr 2 Ge 2 Te 6,{},"{'Cr': 2, 'Ge': 2, 'Te': 6}",6.5,0.0,,,10.1038/ncomms10616
Sr 2 Ru O 4,{},"{'Sr': 2, 'Ru': 1, 'O': 4}",15.0,0.0,,,10.1209/epl/i2000-00358-9
Sr 2 Ru O 4,{},"{'Sr': 2, 'Ru': 1, 'O': 4}",1.5,0.0,,,10.1016/s0921-4534(99)00053-2
Nb,{},{'Nb': 1},9.26,0.0,,,10.1088/0953-2048/18/7/l01
Nb B 2.34,{},"{'Nb': 1, 'B': 2.34}",8.0,0.0,,,10.1103/physrevb.77.064506
Nb B 2.34,{},"{'Nb': 1, 'B': 2.34}",9.76,0.0,,,10.1103/physrevb.77.064506
Nb B 2.2,{},"{'Nb': 1, 'B': 2.2}",5.5,0.0,,,10.1103/physrevb.77.064506
Nb B 2,{},"{'Nb': 1, 'B': 2}",2.0,0.0,,,10.1103/physrevb.77.064506
Y Ba 2 Cu 3 O 7-δ,{'δ': []},,8.0,0.0,,,10.1103/physrevb.77.064506
Nb B 2.34,{},"{'Nb': 1, 'B': 2.34}",9.2,0.0,,,10.1103/physrevb.77.064506
Mg B 2,{},"{'Mg': 1, 'B': 2}",1.5,0.0,,,10.1103/physrevb.77.064506
Nb 0.9 B 2,{},"{'Nb': 0.9, 'B': 2}",9.8,0.0,,,10.1103/physrevb.77.064506
Nb B 2.2,{},"{'Nb': 1, 'B': 2.2}",4.79,0.0,,,10.1103/physrevb.77.064506
Fe Se,{},"{'Fe': 1, 'Se': 1}",9.0,0.0,,,10.1103/physrevb.97.201102
In,{},{'In': 1},3.4,0.0,,,
Bi 2 Se 3,{},"{'Bi': 2, 'Se': 3}",3.8,0.0,,,10.1088/0953-8984/25/21/215702
Ca Cu O 2,{},"{'Ca': 1, 'Cu': 1, 'O': 2}",100.0,0.0,,,
Bi 2 Sr 2 Ca Cu 2 O 8,{},"{'Bi': 2, 'Sr': 2, 'Ca': 1, 'Cu': 2, 'O': 8}",89.0,0.0,,,10.1142/s021797921840026x
Fe Se 1-x Te x,{'x': []},,14.0,0.0,,,10.1088/0953-8984/22/48/485702
Gd Ru,{},"{'Gd': 1, 'Ru': 1}",30.0,0.0,,,10.1063/1.3677868
La Bi,{},"{'La': 1, 'Bi': 1}",5.8,0.0,,,10.1103/physrevb.95.014507
Mo Te 2,{},"{'Mo': 1, 'Te': 2}",0.1,0.0,,,10.1103/physrevb.95.014507
La Bi,{},"{'La': 1, 'Bi': 1}",3.4,0.0,,,10.1103/physrevb.95.014507
U Ru 2 Si 2,{},"{'U': 1, 'Ru': 2, 'Si': 2}",1.5,0.0,,,10.1103/physrevb.87.085114
La 2-x Sr x Cu O 4,{'x': [0.13]},"{'La': 1.87, 'Sr': 0.13, 'Cu': 1, 'O': 4}",42.0,0.0,,,10.1103/revmodphys.75.1201
Bi 2 Sr 2 Ca Cu 2 O 8+δ,{'δ': []},,91.0,0.0,,,10.1103/revmodphys.75.1201
Y Ba 2 Cu 3 O 6+y,{'y': [0.35]},"{'Y': 1, 'Ba': 2, 'Cu': 3, 'O': 6.35}",39.0,0.0,,,10.1103/revmodphys.75.1201
La 2 Cu O 4+δ,{'δ': []},,42.0,0.0,,,10.1103/revmodphys.75.1201
Y Ba 2 Cu 3 O 6+y,{'y': [0.93]},"{'Y': 1, 'Ba': 2, 'Cu': 3, 'O': 6.93}",93.0,0.0,,,10.1103/revmodphys.75.1201
B,{},{'B': 1},11.0,0.0,,,10.1016/j.physc.2005.04.006
Fe,{},{'Fe': 1},1.0,0.0,,,10.1016/j.physc.2005.04.006
Fe Se,{},"{'Fe': 1, 'Se': 1}",8.0,0.0,,,10.1103/physrevx.9.021025
Ge Te,{},"{'Ge': 1, 'Te': 1}",1.0,0.0,,,10.1103/physrevb.68.174509
Mg B 2,{},"{'Mg': 1, 'B': 2}",39.0,0.0,,,10.1103/physrevb.68.174509
Al,{},{'Al': 1},0.38,0.0,,,
V,{},{'V': 1},4.0,0.0,films,,10.1021/acs.nanolett.6b00361
Na 0.42 Co O 2,{},"{'Na': 0.42, 'Co': 1, 'O': 2}",4.25,0.0,,,10.1209/0295-5075/84/57010
Mg B 2,{},"{'Mg': 1, 'B': 2}",39.0,0.0,,,10.1103/physrevb.80.104507
Cr As,{},"{'Cr': 1, 'As': 1}",1.1,5.8,,,10.1038/srep13788
Ca K Fe 4 As 4,{},"{'Ca': 1, 'K': 1, 'Fe': 4, 'As': 4}",35.0,0.0,,,10.1103/physrevb.100.094513
Ca K (Fe 1-x Ni x) 4 As 4,{'x': []},,35.0,0.0,,,10.1103/physrevb.100.094513
Mg B 2,{},"{'Mg': 1, 'B': 2}",39.0,0.0,,,10.1103/physrevb.64.052510
Bi 2 Sr 2 Ca Cu 2 O 8,{},"{'Bi': 2, 'Sr': 2, 'Ca': 1, 'Cu': 2, 'O': 8}",92.0,0.0,,,
Bi 2 Sr 2 Ca Cu 2 O 8,{},"{'Bi': 2, 'Sr': 2, 'Ca': 1, 'Cu': 2, 'O': 8}",60.0,0.0,,,
Ba 2 Ca 4 Cu 5 O 10 (F O) 2,{},"{'Ba': 2, 'Ca': 4, 'Cu': 5, 'O': 12, 'F': 2}",65.0,0.0,,,
Re 5.5 Ta,{},"{'Re': 5.5, 'Ta': 1}",8.0,0.0,,,10.1016/j.physc.2009.11.120
Ca 10 (Pt 4 As 8) (Fe 2-x Pt x As 2) 5,{'x': []},,25.0,0.0,,,10.7566/jpsj.83.113707
Ca 10 (Ir 4 As 8) (Fe 2-x Ir x As 2) 5,{'x': []},,16.0,0.0,,,10.7566/jpsj.83.113707
Fe As 4,{},"{'Fe': 1, 'As': 4}",54.0,0.0,,,10.1143/jpsj.78.013701
La Fe As O 0.6,{},"{'La': 1, 'Fe': 1, 'As': 1, 'O': 0.6}",28.0,0.0,,,10.1143/jpsj.78.013701
La Fe As O 0.7,{},"{'La': 1, 'Fe': 1, 'As': 1, 'O': 0.7}",28.0,0.0,,,10.1143/jpsj.78.013701
Pb Ta Se 2,{},"{'Pb': 1, 'Ta': 1, 'Se': 2}",3.72,0.0,,,10.1103/physrevb.89.020505
Pb Ta Se 2,{},"{'Pb': 1, 'Ta': 1, 'Se': 2}",3.79,0.0,,,10.1103/physrevb.89.020505
In Ta S 2,{},"{'In': 1, 'Ta': 1, 'S': 2}",1.0,0.0,,,10.1103/physrevb.89.020505
Mg B 2,{},"{'Mg': 1, 'B': 2}",39.0,0.0,,,10.1103/physrevb.74.224507
Li,{},{'Li': 1},2.0,0.0,,,10.1103/physrevb.74.224507
Sr Fe 2 As 2,{},"{'Sr': 1, 'Fe': 2, 'As': 2}",20.0,0.0,,,10.1103/physrevb.82.024510
Pr Os 4 Sb 12,{},"{'Pr': 1, 'Os': 4, 'Sb': 12}",1.85,0.0,,,10.1103/physrevlett.120.187004
Mg B 2,{},"{'Mg': 1, 'B': 2}",39.0,0.0,,,10.1063/1.1472626
Fe 1.03 Se 0.3 Te 0.7,{},"{'Fe': 1.03, 'Se': 0.3, 'Te': 0.7}",13.0,0.0,,,10.1103/physrevb.79.140510
Mg B 2,{},"{'Mg': 1, 'B': 2}",40.0,0.0,,,10.1016/s0921-4534(02)02684-9
Sr 2 Ru O 4,{},"{'Sr': 2, 'Ru': 1, 'O': 4}",1.5,0.0,,,10.1143/jpsj.72.2456
Hg 2 Sr 2 (Y 0.8 Ca 0.2) Cu 2 O 8-δ,{'δ': []},,60.0,0.0,,,10.1088/0953-8984/16/23/023
Al 14.9 Zn 41.0 Mg 44.1,{},"{'Al': 14.9, 'Zn': 41.0, 'Mg': 44.1}",0.05,0.0,,,10.31274/aperiodic2018-180810-30
Sr Ti O 3,{},"{'Sr': 1, 'Ti': 1, 'O': 3}",39.1,0.0,,,10.1103/physrevmaterials.3.091401
Bi 2 Sr 2 Ca Cu 2 O 8,{},"{'Bi': 2, 'Sr': 2, 'Ca': 1, 'Cu': 2, 'O': 8}",100.0,0.0,,,10.1103/physrevb.75.195116
Bi 2 Sr 2 Ca 2 Cu 3 O 10,{},"{'Bi': 2, 'Sr': 2, 'Ca': 2, 'Cu': 3, 'O': 10}",110.0,0.0,,,10.1103/physrevb.75.195116
Bi,{},{'Bi': 1},87.0,0.0,,,10.1016/j.physc.2007.03.298
Bi,{},{'Bi': 1},14.0,0.0,,,10.1016/j.physc.2007.03.298
Bi,{},{'Bi': 1},130.0,0.0,,,10.1016/j.physc.2007.03.298
Bi,{},{'Bi': 1},86.5,0.0,,,10.1016/j.physc.2007.03.298
Mg B 2,{},"{'Mg': 1, 'B': 2}",39.0,0.0,,,10.1063/1.1481239
Fe Se,{},"{'Fe': 1, 'Se': 1}",25.0,0.0,,,10.1103/physrevb.95.205405
Ba 1-x K x Fe 2 As 2,{'x': []},,38.0,0.0,,,10.1088/0953-2048/22/10/105006
Sr 1-x K x Fe 2 As 2,{'x': []},,38.0,0.0,,,10.1088/0953-2048/22/10/105006
Ca 1-x K x Fe 2 As 2,{'x': []},,38.0,0.0,,,10.1088/0953-2048/22/10/105006
Ba Fe 1.87 Co 0.13 As 2,{},"{'Ba': 1, 'Fe': 1.87, 'Co': 0.13, 'As': 2}",25.0,0.0,crystal,,10.1088/0953-2048/22/10/105006
Ba 0.6 K 0.4 Fe 2 As 2,{},"{'Ba': 0.6, 'K': 0.4, 'Fe': 2, 'As': 2}",36.3,0.0,,,10.1088/0953-2048/22/10/105006
La Fe As O 0.89 F 0.11,{},"{'La': 1, 'Fe': 1, 'As': 1, 'O': 0.89, 'F': 0.11}",28.2,0.0,,,10.1088/0953-2048/22/10/105006
La O 1-x F x Fe As,{'x': []},,56.0,0.0,,,10.1088/0953-2048/22/10/105006
Pr O 1-x F x Fe As,{'x': []},,56.0,0.0,,,10.1088/0953-2048/22/10/105006
Sm O 1-x F x Fe As,{'x': []},,56.0,0.0,,,10.1088/0953-2048/22/10/105006
Ce O 1-x F x Fe As,{'x': []},,56.0,0.0,,,10.1088/0953-2048/22/10/105006
Nd O 1-x F x Fe As,{'x': []},,56.0,0.0,,,10.1088/0953-2048/22/10/105006
Gd O 1-x F x Fe As,{'x': []},,56.0,0.0,,,10.1088/0953-2048/22/10/105006
Ba Fe 1.8 Co 0.2 As 2,{},"{'Ba': 1, 'Fe': 1.8, 'Co': 0.2, 'As': 2}",14.3,0.0,,,10.1088/0953-2048/22/10/105006
La Fe 0.92 Co 0.08 As O,{},"{'La': 1, 'Fe': 0.92, 'Co': 0.08, 'As': 1, 'O': 1}",2.0,0.0,,,10.1088/0953-2048/22/10/105006
Y Ni 2 B 2 C,{},"{'Y': 1, 'Ni': 2, 'B': 2, 'C': 1}",15.0,0.0,,,10.1080/0141861031000111129
Mg B 2,{},"{'Mg': 1, 'B': 2}",39.0,0.0,,,10.1080/0141861031000111129
Hf V 2,{},"{'Hf': 1, 'V': 2}",9.2,0.0,,,10.1080/0141861031000111129
Ce Co 2,{},"{'Ce': 1, 'Co': 2}",1.4,0.0,,,10.1080/0141861031000111129
Ce Ru 2,{},"{'Ce': 1, 'Ru': 2}",6.2,0.0,,,10.1080/0141861031000111129
Nd Fe As O 0.82 F 0.18,{},"{'Nd': 1, 'Fe': 1, 'As': 1, 'O': 0.82, 'F': 0.18}",51.5,0.0,single crystal,,10.1088/1361-6668/ab785c
Li Fe As,{},"{'Li': 1, 'Fe': 1, 'As': 1}",19.7,0.0,single crystal,,10.1088/1361-6668/ab785c
Nd Fe As (O F),{},"{'Nd': 1, 'Fe': 1, 'As': 1, 'O': 1, 'F': 1}",44.0,0.0,films,,10.1088/1361-6668/ab785c
Nd Fe As (O F),{},"{'Nd': 1, 'Fe': 1, 'As': 1, 'O': 1, 'F': 1}",46.0,0.0,films,,10.1088/1361-6668/ab785c
Fe Se 6,{},"{'Fe': 1, 'Se': 6}",58.0,0.0,,,10.1088/1361-6668/ab785c
Fe Se 1-x Te x,{'x': [0.6]},"{'Fe': 1, 'Se': 0.4, 'Te': 0.6}",14.2,0.0,single crystal,,10.1088/1361-6668/ab785c
La Fe As O 2,{},"{'La': 1, 'Fe': 1, 'As': 1, 'O': 2}",50.0,0.0,,,
Sr Fe 1-x Pd x As 2,{'x': []},,8.7,0.0,,,
H C 2,{},"{'H': 1, 'C': 2}",3.0,0.0,,,10.1103/physrevb.81.012503
U Pt 3,{},"{'U': 1, 'Pt': 3}",0.5,0.0,,,10.1103/physrevlett.85.3005
Ba (Fe Co) 2 As 2,{},"{'Ba': 1, 'Fe': 2, 'Co': 2, 'As': 2}",25.0,0.0,,,10.1143/jpsj.80.113707
Nb Se 2,{},"{'Nb': 1, 'Se': 2}",7.2,0.0,,,10.1007/978-3-662-11044-7_10
Rb 3 C 60,{},"{'Rb': 3, 'C': 60}",29.4,0.0,,,10.1007/978-3-662-11044-7_10
Ba 0.6 K 0.4 Bi O 3,{},"{'Ba': 0.6, 'K': 0.4, 'Bi': 1, 'O': 3}",30.0,0.0,,,10.1007/978-3-662-11044-7_10
Cu Se 2,{},"{'Cu': 1, 'Se': 2}",2.4,0.0,,,10.7566/jpsj.82.102001
Bi 2 Sr 2 Ca Cu 2 O 8,{},"{'Bi': 2, 'Sr': 2, 'Ca': 1, 'Cu': 2, 'O': 8}",67.0,0.0,thin films,,10.1103/physrevlett.120.117001
(Y 0.7 Th 0.3) 2 C 3,{},"{'Y': 1.4, 'Th': 0.6, 'C': 3}",17.0,5.0,,,10.1007/978-3-540-71023-3_17
Y C 2,{},"{'Y': 1, 'C': 2}",3.88,0.0,,,10.1007/978-3-540-71023-3_17
Y 2 C 2,{},"{'Y': 2, 'C': 2}",11.7,2.0,,,10.1007/978-3-540-71023-3_17
C 60,{},{'C': 60},18.0,0.0,polycrystalline,,10.1007/978-3-540-71023-3_17
La C 2,{},"{'La': 1, 'C': 2}",1.6,0.0,,,10.1007/978-3-540-71023-3_17
C 60,{},{'C': 60},33.0,0.0,,,10.1007/978-3-540-71023-3_17
Y C 2,{},"{'Y': 1, 'C': 2}",10.0,0.0,,,10.1007/978-3-540-71023-3_17
Lu C 2,{},"{'Lu': 1, 'C': 2}",10.0,0.0,,,10.1007/978-3-540-71023-3_17
La 2 C 3,{},"{'La': 2, 'C': 3}",11.0,0.0,,,10.1007/978-3-540-71023-3_17
La 2 C 3,{},"{'La': 2, 'C': 3}",13.4,0.0,,,10.1007/978-3-540-71023-3_17
La 2 C 3-δ,{'δ': []},,6.0,0.0,,,10.1007/978-3-540-71023-3_17
Ca Be Si,{},"{'Ca': 1, 'Be': 1, 'Si': 1}",0.4,0.0,,,10.1103/physrevb.79.104503
Ca Si 2,{},"{'Ca': 1, 'Si': 2}",14.0,0.0,,,10.1103/physrevb.79.104503
Sr 2 Ru O 4,{},"{'Sr': 2, 'Ru': 1, 'O': 4}",1.5,0.0,,,10.1007/0-306-48063-8
C 4 K Tl 1.5,{},"{'C': 4, 'K': 1, 'Tl': 1.5}",2.7,0.0,,,10.1007/0-306-48063-8
C 6 Ca,{},"{'C': 6, 'Ca': 1}",11.5,0.0,,,10.1007/0-306-48063-8
Na,{},{'Na': 1},5.0,0.0,,,10.1007/0-306-48063-8
Mg C Ni 3,{},"{'Mg': 1, 'C': 1, 'Ni': 3}",8.0,0.0,,,10.1007/0-306-48063-8
Rb Cs 2 C 60,{},"{'Rb': 1, 'Cs': 2, 'C': 60}",40.0,12.0,,,10.1007/0-306-48063-8
Cs 3 C 60,{},"{'Cs': 3, 'C': 60}",33.0,0.0,,,10.1007/0-306-48063-8
Ba 1-x K x Bi O 3,{'x': []},,0.3,0.0,,,10.1007/0-306-48063-8
C 6 Yb,{},"{'C': 6, 'Yb': 1}",6.5,0.0,,,10.1007/0-306-48063-8
Li Ti 2 O 4,{},"{'Li': 1, 'Ti': 2, 'O': 4}",13.7,0.0,,,10.1007/0-306-48063-8
U Ge 2,{},"{'U': 1, 'Ge': 2}",53.0,0.0,,,10.1007/0-306-48063-8
Na V 2 O 5,{},"{'Na': 1, 'V': 2, 'O': 5}",34.0,0.0,,,10.1103/physrevb.63.045105
Sr Fe 2 As 2,{},"{'Sr': 1, 'Fe': 2, 'As': 2}",39.0,0.0,,,10.1088/0953-2048/26/11/115007
Mg B 2,{},"{'Mg': 1, 'B': 2}",39.0,0.0,,,10.1063/1.2039993
Ba 0.6 K 0.4 Bi O 3,{},"{'Ba': 0.6, 'K': 0.4, 'Bi': 1, 'O': 3}",32.0,0.0,single crystal,,
Ga 0.947 Mn 0.053,{},"{'Ga': 0.947, 'Mn': 0.053}",110.0,0.0,,,10.1016/s0304-8853(02)01023-5
Li Fe As,{},"{'Li': 1, 'Fe': 1, 'As': 1}",18.0,0.0,,,10.1016/j.scib.2019.07.011
Ca K Fe 4 As 4,{},"{'Ca': 1, 'K': 1, 'Fe': 4, 'As': 4}",35.0,0.0,,,
Ge 1-x Mn x Te,{'x': [0.015]},"{'Ge': 0.985, 'Mn': 0.015, 'Te': 1}",40.0,0.0,monolayer,,10.1016/j.phpro.2012.03.404
Ge Te,{},"{'Ge': 1, 'Te': 1}",120.0,0.0,film 44,,10.1016/j.phpro.2012.03.404
Bi 2 Sr 2 Ca 0.92 Y 0.08 Cu 2 O 8+δ,{'δ': []},,96.0,0.0,,,10.1103/physrevlett.122.176403
Al,{},{'Al': 1},1.2,0.0,films,,
K 3.3,{},{'K': 3.3},18.0,0.0,,,10.1038/ncomms1513
Ba 0.75 K 0.25 Fe 2 As 2,{},"{'Ba': 0.75, 'K': 0.25, 'Fe': 2, 'As': 2}",32.0,0.0,,,10.1103/physrevlett.106.247002
La H 10,{},"{'La': 1, 'H': 10}",260.0,200.0,,,
La K H 12,{},"{'La': 1, 'K': 1, 'H': 12}",143.2,240.0,,,
La K H 12,{},"{'La': 1, 'K': 1, 'H': 12}",99.2,140.0,,,
Y Ba 2 Cu 3 O 7-δ,{'δ': []},,90.0,0.0,epitaxial films,100) LaAlO 3,10.1103/physrevlett.89.137005
Mg B 2,{},"{'Mg': 1, 'B': 2}",39.0,0.0,,,10.1088/0953-2048/16/6/302
Mg B 2,{},"{'Mg': 1, 'B': 2}",40.0,0.0,,,10.1142/s0217979216300176
Mo 3 Al 2 C,{},"{'Mo': 3, 'Al': 2, 'C': 1}",9.0,0.0,,,10.1103/physrevb.82.064511
Mo 2 B C,{},"{'Mo': 2, 'B': 1, 'C': 1}",9.95,0.0,,,10.1103/physrevb.82.064511
Zr Pd 2 Al,{},"{'Zr': 1, 'Pd': 2, 'Al': 1}",0.2,0.0,,,10.1103/physrevb.85.174505
Y 0.96 Pd 2.08 Sn 0.96,{},"{'Y': 0.96, 'Pd': 2.08, 'Sn': 0.96}",5.0,0.0,,,10.1103/physrevb.85.174505
Y Pd 2 Sn,{},"{'Y': 1, 'Pd': 2, 'Sn': 1}",4.7,0.0,,,10.1103/physrevb.85.174505
Zr 3 Ir,{},"{'Zr': 3, 'Ir': 1}",2.3,0.0,,,
Mg B 2,{},"{'Mg': 1, 'B': 2}",40.0,0.0,,,10.1016/j.physc.2007.08.011
Mg B 2,{},"{'Mg': 1, 'B': 2}",20.0,0.0,,,10.1016/j.physc.2007.08.011
Mg B 2,{},"{'Mg': 1, 'B': 2}",36.0,0.0,,,10.1016/j.physc.2007.08.011
Mg B 2,{},"{'Mg': 1, 'B': 2}",38.5,0.0,,,10.1016/j.physc.2007.08.011
Pb 0.3 Bi 0.7,{},"{'Pb': 0.3, 'Bi': 0.7}",8.3,0.0,film,,10.1103/physrevb.93.220506
Bi 2 Se 3,{},"{'Bi': 2, 'Se': 3}",8.2,0.0,,,10.1103/physrevb.93.220506
H,{},{'H': 1},0.2,0.0,,,10.1088/0253-6102/43/6/034
Fe 1+y Te 1-x S x,"{'x': [], 'y': []}",,8.0,0.0,,,
Fe Se,{},"{'Fe': 1, 'Se': 1}",37.0,6.0,,,
Rb x Fe 2-y Se 2,"{'x': [], 'y': []}",,30.0,0.0,,,
Fe Se 1-x,{'x': [0.2]},"{'Fe': 1, 'Se': 0.8}",37.0,6.0,,,
K 0.7 Fe 1.7 Se 2,{},"{'K': 0.7, 'Fe': 1.7, 'Se': 2}",31.0,0.0,single crystal,,
(Tl K) Fe 2-y Se 2,{'y': []},,30.0,0.0,,,
Sm Fe As O 0.85,{},"{'Sm': 1, 'Fe': 1, 'As': 1, 'O': 0.85}",55.0,0.0,,,
Ba (Fe 0.952 Co 0.048) 2 As 2,{},"{'Ba': 1, 'Fe': 1.904, 'Co': 0.096, 'As': 2}",18.0,0.0,,,10.1103/physrevb.100.134509
Ba (Fe 0.946 Co 0.054) 2 As 2,{},"{'Ba': 1, 'Fe': 1.892, 'Co': 0.108, 'As': 2}",4.6,0.0,,,10.1103/physrevb.100.134509
Ba (Fe 0.946 Co 0.054) 2 As 2,{},"{'Ba': 1, 'Fe': 1.892, 'Co': 0.108, 'As': 2}",21.0,0.0,,,10.1103/physrevb.100.134509
Ba (Fe 1-x Co x) 2 As 2,{'x': []},,22.0,0.0,,,
Sr (Fe 1-x Co x) 2 As 2,{'x': []},,13.0,0.0,crystal,,
Eu Fe 2 As 2,{},"{'Eu': 1, 'Fe': 2, 'As': 2}",30.0,0.0,,,
Sr (Fe 1-x Co x) 2 As 2,{'x': []},,18.0,0.0,,,
Y Ni 2 B 2,{},"{'Y': 1, 'Ni': 2, 'B': 2}",15.3,0.0,,,10.1103/physrevb.92.054513
K 0.73 Fe 1.67 Se 2,{},"{'K': 0.73, 'Fe': 1.67, 'Se': 2}",32.0,0.0,,,10.1103/physrevb.85.094512
Fe Se,{},"{'Fe': 1, 'Se': 1}",8.5,0.0,,,10.1103/physrevb.85.094512
K x Fe y Se 2,"{'x': [], 'y': []}",,30.0,0.0,,,10.1103/physrevb.85.094512
Rb x Fe y Se 2,"{'x': [], 'y': []}",,30.0,0.0,,,10.1103/physrevb.85.094512
Cs x Fe y Se 2,"{'x': [], 'y': []}",,30.0,0.0,,,10.1103/physrevb.85.094512
Tl x Fe y Se 2,"{'x': [], 'y': []}",,30.0,0.0,,,10.1103/physrevb.85.094512
K 0.73 Fe 1.67 Se 2,{},"{'K': 0.73, 'Fe': 1.67, 'Se': 2}",32.0,0.0,single crystals,,10.1103/physrevb.85.094512
(Y La) Fe As O 1-y,{'y': []},,50.0,0.0,,,10.1103/physrevlett.109.157001
La,{},{'La': 1},50.0,0.0,,,10.1103/physrevlett.109.157001
La,{},{'La': 1},5.0,0.0,,,10.1103/physrevlett.109.157001
Fe As 4,{},"{'Fe': 1, 'As': 4}",55.0,0.0,,,10.1103/physrevlett.109.157001
La 0.8 Y 0.211,{},"{'La': 0.8, 'Y': 0.211}",34.0,0.0,,,10.1103/physrevlett.109.157001
Y 0.95 La 0.051,{},"{'Y': 0.95, 'La': 0.051}",50.0,0.0,,,10.1103/physrevlett.109.157001
Y 0.2 La 0.811,{},"{'Y': 0.2, 'La': 0.811}",34.0,0.0,,,10.1103/physrevlett.109.157001
Ba 0.6 K 0.4 Fe 2 As 2,{},"{'Ba': 0.6, 'K': 0.4, 'Fe': 2, 'As': 2}",38.0,0.0,,,10.1103/physrevlett.109.157001
Nd x Ce x Cu O 4-δ,"{'δ': [], 'x': []}",,24.0,0.0,,,10.1103/physrevb.84.144527
Y Ba 2 Cu 3 O 7-y,{'y': []},,90.0,0.0,,,10.1103/physrevb.84.144527
Mg B 2,{},"{'Mg': 1, 'B': 2}",40.0,0.0,,,10.1103/physrevb.84.144527
Ce Ir In 5,{},"{'Ce': 1, 'Ir': 1, 'In': 5}",0.4,0.0,,,10.1103/physrevb.84.144527
La,{},{'La': 1},40.0,0.0,,,
La,{},{'La': 1},28.0,0.0,,,
Nd Fe As O 0.94 F 0.06,{},"{'Nd': 1, 'Fe': 1, 'As': 1, 'O': 0.94, 'F': 0.06}",53.5,0.0,,,
Nd Fe As O 0.94 F 0.06,{},"{'Nd': 1, 'Fe': 1, 'As': 1, 'O': 0.94, 'F': 0.06}",50.5,0.0,,,
Sm Fe As O 0.85,{},"{'Sm': 1, 'Fe': 1, 'As': 1, 'O': 0.85}",53.5,0.0,,,
Sm Fe As O 0.85,{},"{'Sm': 1, 'Fe': 1, 'As': 1, 'O': 0.85}",28.0,0.0,,,
La Fe As O 0.89 F 0.11,{},"{'La': 1, 'Fe': 1, 'As': 1, 'O': 0.89, 'F': 0.11}",28.0,0.0,,,
Nb,{},{'Nb': 1},9.2,0.0,,,10.1103/physrevb.100.064522
Y Ba 2 C u3 O 6.6,{'u': []},,53.0,0.0,,,10.1103/physrevb.66.144501
Cs Fe 2 As 2,{},"{'Cs': 1, 'Fe': 2, 'As': 2}",2.6,0.0,,,10.1103/physrevlett.101.107007
La O Fe As,{},"{'La': 1, 'O': 1, 'Fe': 1, 'As': 1}",26.0,0.0,,,10.1103/physrevlett.101.107007
Cs Fe 2 As 2,{},"{'Cs': 1, 'Fe': 2, 'As': 2}",37.0,0.0,,,10.1103/physrevlett.101.107007
K Fe 2 As 2,{},"{'K': 1, 'Fe': 2, 'As': 2}",3.8,0.0,,,10.1103/physrevlett.101.107007
La (O F) Fe As,{},"{'La': 1, 'O': 1, 'F': 1, 'Fe': 1, 'As': 1}",26.0,0.0,,,10.1103/physrevlett.101.107007